256
Atoms. Timestep: 0
1 0 0 0
1 1.805 1.805 0
1 1.805 0 1.805
1 0 1.805 1.805
1 3.61 0 0
1 5.415 1.805 0
1 5.415 0 1.805
1 3.61 1.805 1.805
1 7.22 0 0
1 9.025 1.805 0
1 9.025 0 1.805
1 7.22 1.805 1.805
1 10.83 0 0
1 12.635 1.805 0
1 12.635 0 1.805
1 10.83 1.805 1.805
1 0 3.61 0
1 1.805 5.415 0
1 1.805 3.61 1.805
1 0 5.415 1.805
1 3.61 3.61 0
1 5.415 5.415 0
1 5.415 3.61 1.805
1 3.61 5.415 1.805
1 7.22 3.61 0
1 9.025 5.415 0
1 9.025 3.61 1.805
1 7.22 5.415 1.805
1 10.83 3.61 0
1 12.635 5.415 0
1 12.635 3.61 1.805
1 10.83 5.415 1.805
1 0 7.22 0
1 1.805 9.025 0
1 1.805 7.22 1.805
1 0 9.025 1.805
1 3.61 7.22 0
1 5.415 9.025 0
1 5.415 7.22 1.805
1 3.61 9.025 1.805
1 7.22 7.22 0
1 9.025 9.025 0
1 9.025 7.22 1.805
1 7.22 9.025 1.805
1 10.83 7.22 0
1 12.635 9.025 0
1 12.635 7.22 1.805
1 10.83 9.025 1.805
1 0 10.83 0
1 1.805 12.635 0
1 1.805 10.83 1.805
1 0 12.635 1.805
1 3.61 10.83 0
1 5.415 12.635 0
1 5.415 10.83 1.805
1 3.61 12.635 1.805
1 7.22 10.83 0
1 9.025 12.635 0
1 9.025 10.83 1.805
1 7.22 12.635 1.805
1 10.83 10.83 0
1 12.635 12.635 0
1 12.635 10.83 1.805
1 10.83 12.635 1.805
1 0 0 3.61
1 1.805 1.805 3.61
1 1.805 0 5.415
1 0 1.805 5.415
1 3.61 0 3.61
1 5.415 1.805 3.61
1 5.415 0 5.415
1 3.61 1.805 5.415
1 7.22 0 3.61
1 9.025 1.805 3.61
1 9.025 0 5.415
1 7.22 1.805 5.415
1 10.83 0 3.61
1 12.635 1.805 3.61
1 12.635 0 5.415
1 10.83 1.805 5.415
1 0 3.61 3.61
1 1.805 5.415 3.61
1 1.805 3.61 5.415
1 0 5.415 5.415
1 3.61 3.61 3.61
1 5.415 5.415 3.61
1 5.415 3.61 5.415
1 3.61 5.415 5.415
1 7.22 3.61 3.61
1 9.025 5.415 3.61
1 9.025 3.61 5.415
1 7.22 5.415 5.415
1 10.83 3.61 3.61
1 12.635 5.415 3.61
1 12.635 3.61 5.415
1 10.83 5.415 5.415
1 0 7.22 3.61
1 1.805 9.025 3.61
1 1.805 7.22 5.415
1 0 9.025 5.415
1 3.61 7.22 3.61
1 5.415 9.025 3.61
1 5.415 7.22 5.415
1 3.61 9.025 5.415
1 7.22 7.22 3.61
1 9.025 9.025 3.61
1 9.025 7.22 5.415
1 7.22 9.025 5.415
1 10.83 7.22 3.61
1 12.635 9.025 3.61
1 12.635 7.22 5.415
1 10.83 9.025 5.415
1 0 10.83 3.61
1 1.805 12.635 3.61
1 1.805 10.83 5.415
1 0 12.635 5.415
1 3.61 10.83 3.61
1 5.415 12.635 3.61
1 5.415 10.83 5.415
1 3.61 12.635 5.415
1 7.22 10.83 3.61
1 9.025 12.635 3.61
1 9.025 10.83 5.415
1 7.22 12.635 5.415
1 10.83 10.83 3.61
1 12.635 12.635 3.61
1 12.635 10.83 5.415
1 10.83 12.635 5.415
1 0 0 7.22
1 1.805 1.805 7.22
1 1.805 0 9.025
1 0 1.805 9.025
1 3.61 0 7.22
1 5.415 1.805 7.22
1 5.415 0 9.025
1 3.61 1.805 9.025
1 7.22 0 7.22
1 9.025 1.805 7.22
1 9.025 0 9.025
1 7.22 1.805 9.025
1 10.83 0 7.22
1 12.635 1.805 7.22
1 12.635 0 9.025
1 10.83 1.805 9.025
1 0 3.61 7.22
1 1.805 5.415 7.22
1 1.805 3.61 9.025
1 0 5.415 9.025
1 3.61 3.61 7.22
1 5.415 5.415 7.22
1 5.415 3.61 9.025
1 3.61 5.415 9.025
1 7.22 3.61 7.22
1 9.025 5.415 7.22
1 9.025 3.61 9.025
1 7.22 5.415 9.025
1 10.83 3.61 7.22
1 12.635 5.415 7.22
1 12.635 3.61 9.025
1 10.83 5.415 9.025
1 0 7.22 7.22
1 1.805 9.025 7.22
1 1.805 7.22 9.025
1 0 9.025 9.025
1 3.61 7.22 7.22
1 5.415 9.025 7.22
1 5.415 7.22 9.025
1 3.61 9.025 9.025
1 7.22 7.22 7.22
1 9.025 9.025 7.22
1 9.025 7.22 9.025
1 7.22 9.025 9.025
1 10.83 7.22 7.22
1 12.635 9.025 7.22
1 12.635 7.22 9.025
1 10.83 9.025 9.025
1 0 10.83 7.22
1 1.805 12.635 7.22
1 1.805 10.83 9.025
1 0 12.635 9.025
1 3.61 10.83 7.22
1 5.415 12.635 7.22
1 5.415 10.83 9.025
1 3.61 12.635 9.025
1 7.22 10.83 7.22
1 9.025 12.635 7.22
1 9.025 10.83 9.025
1 7.22 12.635 9.025
1 10.83 10.83 7.22
1 12.635 12.635 7.22
1 12.635 10.83 9.025
1 10.83 12.635 9.025
1 0 0 10.83
1 1.805 1.805 10.83
1 1.805 0 12.635
1 0 1.805 12.635
1 3.61 0 10.83
1 5.415 1.805 10.83
1 5.415 0 12.635
1 3.61 1.805 12.635
1 7.22 0 10.83
1 9.025 1.805 10.83
1 9.025 0 12.635
1 7.22 1.805 12.635
1 10.83 0 10.83
1 12.635 1.805 10.83
1 12.635 0 12.635
1 10.83 1.805 12.635
1 0 3.61 10.83
1 1.805 5.415 10.83
1 1.805 3.61 12.635
1 0 5.415 12.635
1 3.61 3.61 10.83
1 5.415 5.415 10.83
1 5.415 3.61 12.635
1 3.61 5.415 12.635
1 7.22 3.61 10.83
1 9.025 5.415 10.83
1 9.025 3.61 12.635
1 7.22 5.415 12.635
1 10.83 3.61 10.83
1 12.635 5.415 10.83
1 12.635 3.61 12.635
1 10.83 5.415 12.635
1 0 7.22 10.83
1 1.805 9.025 10.83
1 1.805 7.22 12.635
1 0 9.025 12.635
1 3.61 7.22 10.83
1 5.415 9.025 10.83
1 5.415 7.22 12.635
1 3.61 9.025 12.635
1 7.22 7.22 10.83
1 9.025 9.025 10.83
1 9.025 7.22 12.635
1 7.22 9.025 12.635
1 10.83 7.22 10.83
1 12.635 9.025 10.83
1 12.635 7.22 12.635
1 10.83 9.025 12.635
1 0 10.83 10.83
1 1.805 12.635 10.83
1 1.805 10.83 12.635
1 0 12.635 12.635
1 3.61 10.83 10.83
1 5.415 12.635 10.83
1 5.415 10.83 12.635
1 3.61 12.635 12.635
1 7.22 10.83 10.83
1 9.025 12.635 10.83
1 9.025 10.83 12.635
1 7.22 12.635 12.635
1 10.83 10.83 10.83
1 12.635 12.635 10.83
1 12.635 10.83 12.635
1 10.83 12.635 12.635
