256
Atoms. Timestep: 10000
1 0.0626803 -0.124872 -0.0226745
1 1.76929 1.72446 0.0308281
1 1.79838 -0.100237 1.77976
1 -0.0910631 1.67209 1.82648
1 3.51916 -0.122808 0.0289235
1 5.3219 1.78386 -0.0149176
1 5.44085 -0.0571668 1.80237
1 3.61127 1.73236 1.80481
1 7.10276 -0.0392583 0.00265506
1 8.94406 1.74694 -0.147446
1 8.91264 -0.0660651 1.83382
1 7.2482 1.7961 1.85334
1 10.7988 -0.0346981 0.0738633
1 12.6003 1.7139 -0.0940031
1 12.6558 0.056825 1.82737
1 10.7612 1.74517 1.66036
1 -0.107079 3.5376 -0.0389136
1 1.71687 5.35356 -0.0765203
1 1.75386 3.57835 1.7088
1 -0.0675873 5.29733 1.65963
1 3.6241 3.58511 0.0734866
1 5.32359 5.35045 -0.0408998
1 5.3448 3.60475 1.82849
1 3.51659 5.40392 1.84143
1 7.07255 3.62598 -0.101227
1 9.06178 5.27231 -0.13507
1 9.07876 3.56083 1.75508
1 7.18489 5.24044 1.75091
1 10.8762 3.53578 -0.065635
1 12.6013 5.44768 -0.0566397
1 12.5508 3.53258 1.79606
1 10.7671 5.43876 1.70138
1 -0.130961 7.18502 -0.0688894
1 1.9204 9.09732 -0.0692311
1 1.70993 7.26145 1.69235
1 0.0145307 9.12499 1.73398
1 3.51098 7.1772 0.0108098
1 5.40124 9.05074 -0.204997
1 5.2892 7.22441 1.77856
1 3.6325 9.06056 1.74752
1 7.28531 7.1181 -0.0357717
1 9.09723 9.07346 0.0425501
1 9.095 7.17382 1.82869
1 7.20684 9.02659 1.67644
1 10.8253 7.22834 -0.0040613
1 12.5913 9.00639 -0.0804828
1 12.6739 7.22419 1.8981
1 10.8202 9.08813 1.78955
1 0.0370873 10.916 -0.036767
1 1.85549 12.6418 -0.111805
1 1.84513 10.8912 1.90321
1 -0.0319051 12.6301 1.85518
1 3.61192 10.8463 -0.0160748
1 5.37136 12.6729 -0.052753
1 5.4858 10.8562 1.79764
1 3.71904 12.6192 1.71493
1 7.17478 10.9404 -0.135732
1 8.94618 12.7451 -0.0188586
1 9.05048 10.8754 1.62544
1 7.16195 12.5931 1.77977
1 10.8208 10.8416 -0.146406
1 12.7605 12.7294 -0.105381
1 12.6603 10.8324 1.78184
1 10.8798 12.6396 1.75305
1 -0.0273098 -0.085818 3.58194
1 1.77277 1.79564 3.583
1 1.75986 0.0497262 5.42194
1 -0.14579 1.74171 5.34362
1 3.61908 -0.201207 3.60019
1 5.41594 1.69529 3.59071
1 5.40232 -0.018732 5.46127
1 3.51564 1.80016 5.38225
1 7.18799 -0.147486 3.67581
1 9.0759 1.80359 3.62203
1 8.98423 -0.0408295 5.29405
1 7.20611 1.80825 5.41529
1 10.8256 -0.0182876 3.40737
1 12.6183 1.78283 3.49954
1 12.7434 -0.00397908 5.3526
1 10.8925 1.68672 5.40172
1 -0.00510486 3.55215 3.59756
1 1.73266 5.34009 3.65519
1 1.76941 3.55849 5.40152
1 -0.0397719 5.34825 5.44838
1 3.58929 3.51043 3.53545
1 5.28456 5.3955 3.64466
1 5.43403 3.64476 5.32071
1 3.52614 5.37525 5.39261
1 7.2249 3.61598 3.58969
1 9.00154 5.33167 3.60056
1 9.09225 3.5952 5.43139
1 7.31019 5.37327 5.50783
1 10.8357 3.59102 3.59797
1 12.6874 5.35617 3.52153
1 12.6868 3.57172 5.41194
1 10.7922 5.3745 5.35099
1 0.0207042 7.16361 3.49718
1 1.83317 9.06694 3.59067
1 1.79727 7.19978 5.34647
1 -0.0239788 9.00099 5.42505
1 3.55708 7.24471 3.58041
1 5.41331 8.96535 3.57546
1 5.44283 7.10279 5.36039
1 3.63686 8.95123 5.47245
1 7.15958 7.20498 3.50293
1 8.95225 9.09537 3.61833
1 9.04018 7.2387 5.42747
1 7.20034 8.90378 5.39711
1 10.8698 7.25671 3.55927
1 12.7765 9.11652 3.69439
1 12.6554 7.16346 5.38339
1 10.8567 9.03196 5.38345
1 -0.0470834 10.781 3.63171
1 1.80496 12.6297 3.74876
1 1.78212 10.8305 5.47812
1 -0.0502342 12.6358 5.34163
1 3.69536 10.8405 3.6064
1 5.47808 12.6238 3.6298
1 5.47619 10.7696 5.48349
1 3.69597 12.6655 5.44142
1 7.19248 10.801 3.59855
1 9.02922 12.6302 3.54968
1 8.98681 10.985 5.38037
1 7.18517 12.6199 5.50929
1 10.8137 10.7027 3.53936
1 12.7161 12.6567 3.54328
1 12.6332 10.8826 5.39653
1 10.7733 12.7017 5.30425
1 0.0532754 -0.0848492 7.15398
1 1.74162 1.76311 7.29446
1 1.8067 -0.0847883 8.96203
1 -0.0312643 1.77427 9.07107
1 3.69115 0.0726196 7.15422
1 5.4891 1.85951 7.23803
1 5.34667 0.00935499 8.93701
1 3.56923 1.84211 9.06442
1 7.29058 -0.0069517 7.16323
1 9.11279 1.76819 7.19974
1 9.00745 -0.0189047 9.00597
1 7.28039 1.77055 8.93793
1 10.7644 -0.049964 7.21488
1 12.7213 1.71308 7.21224
1 12.6114 -0.0439742 8.96303
1 10.9368 1.79327 8.98164
1 -0.0499869 3.56982 7.20561
1 1.65158 5.45499 7.17032
1 1.76376 3.70331 9.02357
1 -0.141211 5.38418 9.0068
1 3.63157 3.50272 7.16717
1 5.38526 5.36642 7.14691
1 5.41925 3.63028 9.08788
1 3.55111 5.39978 9.04239
1 7.30438 3.6664 7.29066
1 9.10302 5.45122 7.14303
1 9.11084 3.53398 9.06131
1 7.33332 5.41985 9.04416
1 10.8519 3.58357 7.19313
1 12.6479 5.41374 7.24745
1 12.667 3.52028 8.97919
1 10.8211 5.40254 9.164
1 -0.0876418 7.18273 7.25851
1 1.74301 8.93175 7.28247
1 1.59033 7.13665 9.06459
1 -0.0645219 9.12713 9.05671
1 3.46584 7.22855 7.31251
1 5.45896 8.94458 7.28374
1 5.47865 7.1516 9.08966
1 3.59918 8.99932 9.10296
1 7.16889 7.24716 7.23521
1 9.06437 9.03907 7.20907
1 9.02575 7.24527 9.01186
1 7.24403 9.02653 9.04384
1 10.8694 7.19437 7.32596
1 12.5951 9.13657 7.22278
1 12.7506 7.28999 9.07963
1 10.852 8.9766 9.00409
1 -0.0810229 10.8995 7.12693
1 1.8688 12.6266 7.19517
1 1.84191 10.9561 9.054
1 -0.143396 12.5962 9.1001
1 3.64757 10.7324 7.17675
1 5.44201 12.762 7.22296
1 5.44278 10.8915 9.09009
1 3.54773 12.6566 8.98101
1 7.25043 10.888 7.28145
1 9.0172 12.7644 7.2285
1 9.05517 10.8501 9.10174
1 7.29354 12.6904 9.14187
1 10.8147 10.8987 7.2091
1 12.7421 12.7006 7.22551
1 12.6601 10.9347 9.03336
1 10.7843 12.6592 9.1202
1 0.0396365 -0.0250675 10.8199
1 1.83499 1.82197 10.7435
1 1.8717 -0.0103249 12.6352
1 0.0299331 1.64882 12.7283
1 3.67193 0.0467132 10.7468
1 5.52187 1.85393 10.8454
1 5.35618 0.0177937 12.7087
1 3.56353 1.78493 12.6688
1 7.12151 -0.0296097 10.8605
1 9.01724 1.76211 10.8264
1 9.03848 -0.0376624 12.6649
1 7.21695 1.71138 12.6807
1 10.811 0.0350378 10.8325
1 12.6821 1.73118 10.8449
1 12.718 0.0303647 12.6415
1 10.8234 1.69759 12.665
1 -0.0181312 3.52352 10.8857
1 1.67553 5.48165 10.9706
1 1.75771 3.47856 12.6752
1 -0.0649276 5.42019 12.7741
1 3.5779 3.58589 10.863
1 5.34866 5.41908 10.7956
1 5.4273 3.63832 12.6608
1 3.51212 5.33583 12.7521
1 7.17676 3.65624 10.7694
1 8.97577 5.37295 10.8846
1 9.1175 3.56105 12.571
1 7.16996 5.39611 12.6969
1 10.9766 3.54039 10.8424
1 12.6867 5.37501 10.8371
1 12.7981 3.57948 12.6351
1 10.9698 5.41655 12.5526
1 -0.0242377 7.21771 10.8709
1 1.74393 9.08307 10.8424
1 1.82997 7.26796 12.7268
1 -0.0121402 9.06024 12.739
1 3.54835 7.18203 10.7382
1 5.50487 8.95062 10.8583
1 5.36167 7.32584 12.5932
1 3.57191 9.05917 12.5624
1 7.23698 7.17925 11.0718
1 8.98991 9.07401 10.854
1 8.97553 7.26783 12.7116
1 7.24421 9.12201 12.7207
1 10.8686 7.2609 10.7659
1 12.7026 9.0517 10.9418
1 12.6009 7.24931 12.6958
1 10.8443 9.08567 12.5971
1 -0.147408 10.8815 10.8887
1 1.80059 12.6812 10.8305
1 1.70211 10.9323 12.5775
1 0.0479135 12.7916 12.6604
1 3.65619 10.9115 10.8885
1 5.3148 12.7582 10.8741
1 5.41881 10.8516 12.6979
1 3.64675 12.708 12.7084
1 7.20007 10.8781 10.9065
1 9.01115 12.7625 10.8506
1 9.03509 10.9405 12.5773
1 7.31916 12.7801 12.6415
1 10.8322 10.8803 10.8861
1 12.5572 12.8039 10.904
1 12.6379 10.9763 12.6859
1 10.8708 12.777 12.6918
