256
Atoms. Timestep: 100000
1 4.32098 13.106 3.61846
1 10.5466 14.1396 3.99581
1 4.00729 10.271 14.3126
1 5.68126 9.74763 11.9414
1 5.51924 6.91745 6.28427
1 12.7203 2.24035 13.8176
1 5.86314 9.10954 0.834745
1 11.6014 2.1724 5.71701
1 6.88921 3.92298 11.2933
1 11.9382 13.0718 13.5546
1 3.70023 11.1579 8.47605
1 8.18084 6.66301 0.318939
1 9.16437 7.01975 5.26228
1 14.4703 11.1068 13.9641
1 -0.104547 13.1599 6.52392
1 4.09064 0.826635 5.00284
1 14.6701 2.88865 5.77736
1 -0.175592 5.9579 14.3744
1 3.21563 1.50189 9.09217
1 13.0959 8.67797 -0.059007
1 2.9519 6.31768 12.524
1 11.2435 11.2052 9.16226
1 3.84434 5.1766 1.51562
1 14.6619 1.6593 0.994219
1 11.4846 13.0887 6.35119
1 13.9119 7.03762 10.5664
1 5.59471 6.92924 2.13326
1 12.5119 6.43287 12.9734
1 13.5375 0.416168 9.26804
1 2.18053 9.16654 0.650613
1 0.640203 0.702129 9.44672
1 4.46132 7.1584 8.27875
1 10.8281 8.36698 1.04713
1 7.1011 11.459 7.38691
1 5.56819 9.25266 8.6517
1 11.2024 6.50143 4.01029
1 9.0201 7.64001 12.2133
1 9.38168 11.894 4.67985
1 8.15809 3.3762 3.5081
1 5.06473 14.2957 11.9508
1 3.55048 13.2574 -0.467287
1 12.7704 2.78079 10.0804
1 0.173648 11.0708 8.47151
1 7.71165 10.7882 2.34317
1 14.5538 11.8562 3.15796
1 1.74156 6.03346 5.03645
1 7.81775 12.6777 -0.205782
1 8.71108 2.21093 7.5479
1 11.19 12.0042 11.1747
1 0.28508 11.0872 5.76739
1 1.26482 3.20934 0.603245
1 14.9611 6.85947 3.44181
1 2.55683 6.62922 9.09302
1 9.48522 9.06879 13.9925
1 0.225097 2.73775 2.96654
1 1.53653 2.63004 10.6791
1 0.527225 10.5432 11.6578
1 11.1792 6.16912 8.59593
1 3.53202 9.45732 5.2232
1 12.2525 2.94519 1.57293
1 0.129862 5.41224 1.78287
1 10.4883 9.86706 10.9298
1 5.8367 6.26718 -0.136457
1 0.338607 13.2143 13.1697
1 14.1988 1.38637 11.7987
1 7.30824 0.222891 7.29451
1 0.952562 4.58476 7.01984
1 4.03788 5.28118 6.50087
1 12.4073 5.36215 10.5309
1 8.19127 13.66 4.36564
1 5.5822 14.3637 5.59154
1 8.28063 1.59006 5.46402
1 2.43763 1.50308 1.08565
1 10.9817 14.1223 8.72956
1 13.0305 2.79738 3.67007
1 1.20829 12.7209 10.7814
1 11.7136 11.7511 3.42262
1 10.849 0.636133 13.1891
1 13.1286 14.3587 3.93841
1 5.87171 12.9395 13.9656
1 6.80974 8.29028 13.8328
1 4.11348 2.81598 2.75114
1 4.80502 3.5615 9.04477
1 0.400947 5.54109 9.88321
1 6.50584 1.92249 9.26306
1 6.04794 4.40563 2.50138
1 4.27906 7.55204 11.3586
1 11.6103 9.90052 13.8372
1 9.68235 7.58121 2.8417
1 0.926181 7.64256 10.8883
1 10.124 10.2903 2.74027
1 2.57642 7.49177 6.4883
1 3.6903 10.6103 1.92212
1 10.418 1.59763 3.99319
1 8.8632 12.8775 9.06191
1 6.53675 1.4418 11.6269
1 1.97914 4.58254 2.98179
1 3.88201 2.84356 6.69354
1 1.91203 6.98105 2.11509
1 12.6574 6.02732 0.491819
1 4.06616 7.74826 1.06043
1 5.55222 11.5984 0.932934
1 7.99561 5.73042 2.50021
1 13.1657 7.92213 5.21261
1 9.15198 4.85913 4.9438
1 12.8919 7.60904 2.28067
1 4.27915 4.68963 4.32721
1 10.6898 4.10679 3.06772
1 10.6901 7.00256 14.3869
1 9.04494 5.86804 7.48002
1 13.5339 1.01102 4.95757
1 11.7078 10.6701 5.5211
1 5.64422 9.26837 3.79589
1 8.27193 10.3393 9.26091
1 2.24331 8.80929 12.3861
1 6.54782 3.97439 -0.189152
1 7.0886 11.1106 4.8364
1 4.7172 11.8049 5.49228
1 12.2756 14.3885 11.5611
1 0.13225 4.62388 4.71707
1 9.31333 12.7717 1.98807
1 11.701 13.8382 1.92796
1 5.3155 2.64126 13.1307
1 6.09133 9.14979 5.98759
1 2.57015 0.002809 7.13888
1 0.840138 8.39788 5.19956
1 7.07425 2.0331 1.53517
1 5.06614 -0.146583 9.90057
1 1.3717 0.319585 12.1319
1 13.6195 2.01451 7.68719
1 9.59746 2.51984 13.4843
1 13.607 12.5257 11.5274
1 5.09881 0.603204 7.40032
1 13.2595 11.4755 7.47553
1 0.066831 9.05662 9.42621
1 10.0859 13.5096 0.0474439
1 7.08673 14.3906 10.7574
1 11.3068 1.32572 8.08102
1 8.5897 1.15152 12.2863
1 5.19853 5.31753 13.2066
1 14.5981 6.33683 6.09366
1 8.32579 14.1589 13.2323
1 -0.0562639 7.63981 1.13018
1 12.6067 4.39592 8.1439
1 12.3921 12.003 0.482636
1 1.18294 14.4029 1.68221
1 11.0916 7.55592 11.0008
1 12.6045 4.72687 5.5385
1 2.82533 12.1144 6.75349
1 4.68913 11.9764 12.2094
1 9.98584 4.99842 12.58
1 6.71049 6.58842 12.0039
1 3.97879 12.9385 9.98733
1 1.94096 7.13985 14.7326
1 4.17076 3.08618 -0.0589521
1 0.547469 5.44204 12.3535
1 8.55355 6.35271 10.1713
1 10.4223 5.85999 1.30973
1 10.358 0.885957 10.5316
1 11.9726 0.929541 2.34074
1 2.52252 3.95811 9.05562
1 11.359 6.61924 6.29967
1 6.25095 2.71385 6.73814
1 8.50091 8.95176 1.12982
1 8.11915 9.34158 6.7858
1 12.9702 14.2402 7.65797
1 7.34777 7.45371 8.14846
1 2.28981 12.4545 2.18124
1 11.0258 2.04311 0.0385601
1 9.56501 11.387 13.1685
1 2.43113 13.9181 5.5313
1 7.8491 4.58774 13.0839
1 -0.240025 0.292934 7.2082
1 6.28708 13.0162 2.88673
1 11.1575 8.86661 4.02164
1 9.93582 11.0278 7.0788
1 8.15612 10.0533 11.6485
1 2.52579 11.6114 4.54854
1 13.5198 7.14511 7.93687
1 13.0363 5.22486 2.9902
1 14.3527 9.18812 6.93873
1 9.37537 0.412193 -0.172388
1 2.58418 -0.393351 10.2978
1 13.5412 4.31435 12.2452
1 8.68301 9.25919 4.11074
1 10.0972 10.9057 0.425663
1 3.81231 0.338774 14.1807
1 5.02489 12.9714 7.7018
1 5.50978 5.80937 10.0472
1 4.34289 8.15733 13.9269
1 1.25925 0.0607385 14.6447
1 13.9095 12.9664 9.3834
1 3.55655 7.00417 4.01859
1 14.3975 0.2074 2.60131
1 12.4433 8.92277 9.77223
1 13.4656 11.9832 5.0116
1 2.16968 11.3656 13.6324
1 8.72721 2.84663 10.463
1 0.63277 11.9329 0.297526
1 7.63956 14.3963 1.49404
1 7.76192 10.4878 14.5221
1 12.1143 9.21013 7.41242
1 8.97098 3.86965 0.499294
1 7.83835 0.542208 3.44188
1 0.411709 13.9363 4.07415
1 7.11235 1.69163 14.2209
1 14.4363 9.36438 3.69218
1 10.3159 3.50138 8.8871
1 13.969 4.02021 0.0284036
1 1.13184 0.876556 4.85103
1 2.45396 9.14048 9.70126
1 2.49737 4.5037 14.2663
1 0.786201 7.37028 7.70379
1 0.0650068 2.73499 13.5328
1 5.39833 1.11255 0.65738
1 4.79248 0.296331 2.93498
1 10.5036 0.0411318 6.06458
1 4.94959 14.1194 0.894124
1 12.0961 0.0433509 -0.0769846
1 0.88366 13.7796 8.49176
1 0.38687 9.2111 14.2802
1 2.51249 2.02523 13.5142
1 6.47734 4.59414 5.34662
1 1.42258 2.21599 7.3327
1 14.1213 -0.155165 13.8712
1 14.8633 10.0597 1.19347
1 2.14646 3.69572 5.2134
1 3.14034 10.8091 11.0284
1 14.554 7.94663 12.7246
1 11.1612 3.11813 11.5457
1 -0.288065 14.3472 11.3173
1 8.377 13.4561 6.56427
1 8.6132 0.343105 9.14226
1 6.83583 13.7625 8.91392
1 3.04265 13.5686 12.2846
1 10.4575 4.16941 6.58276
1 1.65272 9.51335 7.39203
1 12.9204 10.1366 12.0394
1 6.10477 2.12923 4.18059
1 2.69147 14.9817 3.26776
1 5.89646 11.6334 9.85521
1 1.91166 9.54323 3.02234
1 6.52115 4.86489 8.06856
1 3.41195 4.00475 11.1819
1 10.3718 8.89093 6.00071
1 14.0027 13.6467 1.03618
1 12.4634 9.9999 1.97001
1 7.16766 12.0219 12.0427
1 4.01229 1.62069 11.662
1 11.6287 4.75904 14.3906
1 14.7627 3.60531 8.86498
1 7.19729 8.29172 10.2302
1 9.77152 8.1373 8.55469
1 6.70575 7.0742 4.27922
1 9.5161 1.45169 1.88945
1 9.35947 13.3322 11.5218
