256
Atoms. Timestep: 110000
1 2.72575 9.31681 1.6878
1 3.47574 2.22195 0.0710208
1 10.9611 9.48401 3.07267
1 14.9688 0.633665 11.4764
1 1.8337 3.75722 3.83776
1 -0.0201443 5.65016 12.7986
1 12.0007 2.83502 2.35496
1 1.71814 9.47831 10.6347
1 14.7864 8.06354 4.26005
1 3.31084 0.185035 12.5887
1 9.01114 6.537 8.40568
1 1.06568 0.914182 4.11359
1 8.23934 13.4851 1.37518
1 7.68442 11.1758 12.6117
1 12.2936 9.10917 5.72963
1 7.12607 7.76372 9.12155
1 13.3934 -0.0372184 13.9981
1 13.3898 12.09 8.81171
1 4.2158 5.86489 5.12772
1 1.00971 7.34392 6.52218
1 11.2905 13.6846 13.0695
1 1.55832 11.6316 9.79572
1 13.8567 10.2267 12.7709
1 10.0446 3.40566 4.5524
1 5.43981 9.08384 14.2397
1 12.4476 6.97543 6.09309
1 2.55483 3.8918 6.51749
1 9.08974 11.8397 10.8896
1 -0.305868 8.5471 1.83574
1 8.66519 4.19248 8.36321
1 0.272007 6.51479 14.7166
1 7.66382 2.52006 1.0365
1 6.96141 10.0825 2.18159
1 12.3623 4.66528 3.64327
1 9.10287 1.59422 8.78801
1 9.85357 9.83712 -0.18695
1 2.20858 10.7822 7.58299
1 3.90343 12.6717 6.96253
1 7.88403 5.53709 2.86197
1 0.36527 12.9694 8.1418
1 12.8582 9.71561 8.27474
1 8.35271 -0.617258 8.54797
1 5.32675 11.4318 11.181
1 4.64154 7.14767 0.838268
1 12.3606 1.47566 11.7286
1 8.57785 5.39991 6.22183
1 2.41288 13.628 8.83959
1 12.4418 11.6017 11.1212
1 6.58116 5.60267 7.68012
1 5.96554 5.01215 1.60554
1 4.38489 7.55524 12.7633
1 11.9154 3.73371 9.85735
1 -0.495758 2.04154 2.64282
1 13.5268 5.26526 8.39575
1 6.73539 3.59343 3.1605
1 5.11929 9.99233 7.60155
1 10.4544 0.990728 2.50906
1 1.79936 2.46053 11.1763
1 8.08166 4.71288 0.786775
1 4.507 11.3679 13.7579
1 3.7317 12.9905 3.62349
1 5.67255 12.8314 5.07162
1 8.33311 7.67053 4.01101
1 4.09114 15.0374 4.73149
1 1.35513 3.24327 1.42389
1 3.60174 0.28832 10.0509
1 10.5815 5.75488 4.64468
1 10.3375 6.67509 2.55825
1 11.5522 1.48309 8.79549
1 3.57876 5.39577 2.74141
1 1.45768 1.57457 13.4971
1 4.7891 9.77434 1.12886
1 6.66003 13.4301 10.373
1 1.09277 14.345 11.2755
1 13.3207 12.923 1.62883
1 -0.508619 13.5188 5.71056
1 13.2544 12.5818 14.0107
1 11.2853 7.98507 8.55669
1 0.0150164 1.08214 0.302888
1 13.8369 2.63262 7.77428
1 3.99779 0.729509 7.28759
1 3.61934 2.78325 13.0661
1 7.54747 1.6868 12.5276
1 9.18555 6.56587 10.5747
1 3.86118 11.2607 9.55913
1 11.8539 1.36017 4.40269
1 3.30267 13.0081 12.0824
1 10.1696 0.208 13.8027
1 8.41786 3.39 14.0323
1 1.64175 7.6957 3.13187
1 10.8198 -0.283148 7.57175
1 12.9651 11.3996 5.97062
1 9.77626 14.3321 10.5159
1 14.4443 4.25233 1.92524
1 14.4625 12.2727 3.7103
1 3.21768 5.80614 8.20043
1 2.77336 1.34236 2.53297
1 8.40054 9.28734 10.7253
1 13.9422 -0.0235587 4.40644
1 6.37604 5.34205 4.98138
1 7.09756 10.3142 8.56063
1 1.39437 4.06776 14.7787
1 14.6832 10.2558 10.5977
1 6.03281 3.06127 14.97
1 1.83955 13.9307 1.33565
1 4.00011 7.84423 3.37892
1 5.70919 0.538035 9.24463
1 10.9665 4.28967 14.676
1 2.87946 8.1735 6.67874
1 10.1329 2.61954 12.968
1 6.85289 2.66207 10.3662
1 9.13473 12.1507 8.16489
1 6.40168 5.74756 13.9826
1 10.5306 1.80977 0.25597
1 3.00955 1.67664 4.83342
1 8.31773 1.67682 3.93528
1 10.7131 12.4448 14.9919
1 9.4853 11.3907 1.8052
1 5.77684 1.28253 5.36118
1 6.54047 12.256 7.56111
1 11.8807 3.82779 6.10741
1 11.0585 13.2706 9.34572
1 3.56718 5.34107 0.033792
1 5.65755 3.69221 12.3768
1 8.0298 14.7957 12.3859
1 8.75579 5.87448 14.0444
1 1.78068 9.25021 4.86183
1 9.18403 9.05022 8.18959
1 8.59498 8.75507 13.2484
1 2.00016 5.99476 4.84299
1 -0.0847509 13.6174 0.279277
1 3.14734 7.49765 10.0616
1 13.8351 6.64077 1.0444
1 6.71833 -0.29922 14.8026
1 9.15735 14.4403 3.88978
1 12.5121 13.7857 6.79099
1 -0.221898 -0.362714 2.11675
1 9.0173 0.100798 0.255107
1 3.91732 10.6631 5.57815
1 3.29606 9.65534 14.6496
1 4.79731 2.06455 11.083
1 0.567651 3.45256 12.75
1 12.6489 10.7422 0.405559
1 4.72814 3.44523 6.51644
1 11.7497 9.40988 13.4236
1 12.9825 2.10799 0.323078
1 7.65181 4.50297 11.9061
1 9.86452 8.14852 5.65615
1 12.261 9.27086 11.1157
1 4.31176 3.9804 4.27324
1 8.15862 13.5351 5.81253
1 3.76095 13.7224 14.544
1 5.38142 1.04214 0.681653
1 4.92754 7.51512 7.93307
1 13.4004 10.0486 2.67214
1 6.92805 10.9224 5.40187
1 1.69731 4.95684 10.982
1 3.28857 10.4862 12.0813
1 3.98199 11.9096 1.42558
1 6.37797 7.47535 2.47416
1 12.8483 0.663047 6.34802
1 10.2644 8.32439 11.7267
1 11.1521 5.37275 7.97817
1 -0.228602 10.2407 8.01662
1 1.24822 7.85742 8.61292
1 5.67757 0.0928916 11.708
1 13.9246 7.93825 9.82977
1 6.23137 12.4467 0.24948
1 8.88396 8.22922 1.25642
1 10.0958 5.4449 12.223
1 14.8487 12.5694 10.9092
1 2.33281 0.460103 0.308491
1 10.8314 10.3906 7.17327
1 10.5343 13.4485 2.30667
1 14.4765 8.04901 12.5997
1 11.9049 4.35408 12.0262
1 12.5688 7.01254 12.4132
1 4.58619 14.4957 2.30099
1 5.88407 7.74914 5.20616
1 9.04045 12.2748 4.03513
1 1.40181 11.7424 1.80789
1 12.9394 7.04771 3.4467
1 11.7999 14.1441 0.578395
1 14.2376 5.7157 10.8877
1 7.54127 8.1831 6.67569
1 1.43148 14.4791 13.7836
1 9.73239 4.04476 2.40071
1 0.471609 2.77889 5.87417
1 7.24762 7.65702 14.9625
1 8.47415 0.695383 6.12686
1 1.83236 14.1497 4.29196
1 5.27823 3.81938 9.48445
1 9.32148 3.55086 10.685
1 6.93153 14.7404 4.33004
1 10.2102 1.34286 10.9474
1 14.7346 5.40951 6.16705
1 10.5317 7.30419 14.5258
1 14.0377 2.64451 10.2461
1 4.79028 5.85542 10.7576
1 6.77648 7.07505 11.7881
1 10.7979 10.5157 9.56618
1 7.52077 10.2206 -0.0986632
1 5.0957 1.04261 13.7562
1 4.85897 13.8008 8.91158
1 3.59836 5.28316 12.8479
1 6.68994 2.77245 8.05215
1 2.30973 7.51294 0.0696045
1 5.64354 1.36342 3.25231
1 0.679086 2.69481 9.10113
1 11.7233 11.8044 3.79098
1 14.1796 4.0946 -0.370671
1 -0.230537 0.67742 6.67108
1 14.3009 8.09094 7.11468
1 11.8403 6.35985 10.14
1 0.34933 5.75241 3.36654
1 0.605142 10.088 3.33496
1 12.2008 14.5082 10.9723
1 6.23121 9.33577 12.1584
1 1.07374 0.349622 9.10262
1 -0.0566191 12.995 13.1336
1 12.0426 8.19015 1.37301
1 14.0228 8.31746 -0.331443
1 0.6639 7.28156 10.9043
1 2.13953 7.36518 13.0601
1 12.1346 4.92948 1.06888
1 7.02647 5.35422 9.84988
1 0.848163 4.75805 7.90085
1 13.6809 0.0795074 9.20481
1 1.87479 12.1882 5.62227
1 1.35431 11.5539 12.276
1 14.0792 3.15154 4.28338
1 13.0602 0.345069 1.65494
1 6.16379 12.1695 2.76718
1 4.73283 9.26836 10.1812
1 1.61197 5.73971 1.38059
1 7.49767 0.139609 2.14658
1 3.27692 2.6424 9.11121
1 9.89743 2.82657 6.9406
1 6.47156 14.3314 6.88855
1 -0.594857 10.1527 5.49106
1 8.1824 12.7565 13.9654
1 1.95871 1.7097 7.2443
1 4.62408 10.2459 3.32906
1 8.83296 9.87969 4.30957
1 1.96766 11.5576 14.6372
1 0.918035 9.35848 14.0112
1 3.91674 3.35522 2.02611
1 2.34217 14.7395 6.59452
1 11.4643 14.4016 4.79036
1 13.2073 2.93827 13.2942
1 -0.429423 10.7912 0.684118
1 10.5342 11.0082 12.4152
1 5.69411 13.4281 13.2779
1 7.54002 3.53853 5.39699
1 12.6799 5.88392 14.3664
1 10.4402 12.75 6.1437
