256
Atoms. Timestep: 120000
1 12.5749 14.5106 13.6037
1 5.17875 14.0651 1.47234
1 14.8665 -0.0720851 2.76571
1 8.94977 2.6232 2.85541
1 9.33832 11.9085 11.7708
1 8.45959 6.00631 7.48395
1 -0.246819 10.8545 14.4496
1 9.5647 7.87969 0.219622
1 12.1482 1.6473 14.2839
1 12.8918 7.79349 8.2712
1 14.1707 11.4191 1.62448
1 14.7516 1.46239 5.86867
1 7.01978 6.79778 13.9937
1 6.09284 8.40189 5.82776
1 6.84188 4.34599 14.0323
1 14.2221 4.59202 2.50979
1 5.27027 3.13705 6.26934
1 1.48855 14.5692 0.521706
1 3.19921 3.44753 4.83137
1 -0.480665 13.5596 6.48692
1 11.6178 7.89937 6.32392
1 3.20798 0.0988203 1.67253
1 1.0464 11.4062 1.92283
1 6.68382 11.8857 5.11873
1 6.5997 3.84889 11.2563
1 14.3471 8.41816 14.4157
1 14.1464 4.06523 14.5091
1 2.81512 2.41551 0.557907
1 12.628 10.8803 3.23096
1 8.28783 11.0919 13.9917
1 8.26084 7.22454 5.19789
1 14.826 2.19743 3.04305
1 5.29981 3.42614 9.37992
1 14.2496 1.6895 10.4398
1 12.2198 2.75824 3.125
1 7.32056 7.43385 2.71064
1 10.742 11.206 1.28849
1 13.0995 12.2446 6.24388
1 9.41001 2.82669 5.82707
1 10.5477 1.31819 4.43236
1 0.694826 0.994824 7.9429
1 4.97614 1.33364 10.999
1 0.185547 9.61847 6.85114
1 8.21355 8.88397 13.4233
1 13.3344 13.5046 3.70511
1 10.5291 5.89575 0.127135
1 9.51009 10.1335 9.71139
1 12.7246 13.8001 9.19363
1 2.73113 8.2944 6.8641
1 2.98938 4.51929 1.23109
1 2.09063 11.0509 4.89213
1 2.44577 0.43208 9.91604
1 14.9204 7.00971 0.964769
1 12.7671 6.84447 1.05217
1 10.5421 3.03442 13.2192
1 12.3743 8.82143 3.65837
1 3.0945 12.6094 2.8177
1 5.05074 4.57733 4.61063
1 5.12214 14.5264 10.9823
1 0.577486 -0.296366 5.02797
1 6.10702 9.59812 14.3545
1 7.4579 13.668 2.62101
1 6.85657 3.52551 1.01161
1 0.893891 1.29699 1.28223
1 3.01479 5.93187 3.60356
1 12.3652 11.5285 11.3692
1 4.98521 7.21759 3.88996
1 8.61119 13.4767 7.11074
1 13.8206 0.438067 8.20857
1 8.8298 14.1088 0.763531
1 14.7669 4.95405 7.11056
1 11.8886 2.27303 6.27562
1 6.98046 6.29041 9.80757
1 10.368 6.62557 4.38988
1 1.01245 11.6593 7.58254
1 14.5006 10.8637 11.9004
1 11.7318 6.58258 10.0237
1 4.64309 2.90603 13.1306
1 3.31602 -0.358865 4.6924
1 12.2332 0.0147052 1.57214
1 0.997413 2.97942 6.0007
1 13.5377 10.7438 8.68007
1 5.65664 -0.297491 13.0345
1 2.81092 10.5791 11.0112
1 2.29966 6.20649 12.3678
1 9.16269 4.83657 14.0048
1 1.55198 2.83846 11.5058
1 3.91357 5.65084 8.80377
1 10.8316 5.88398 6.80211
1 12.4652 4.31263 12.6718
1 1.69451 14.4705 8.0102
1 9.34686 8.30083 6.81703
1 8.38597 0.025595 13.8764
1 10.1202 10.3672 14.8033
1 10.4656 13.8343 8.46814
1 6.54289 7.87017 11.4973
1 14.0662 9.32836 1.13119
1 0.682488 0.342968 11.5275
1 1.02978 8.03672 4.94226
1 8.36972 0.414142 7.76206
1 9.17441 13.3504 14.0089
1 10.5175 5.40315 11.4731
1 12.0508 1.76011 11.9418
1 7.59164 9.23054 1.11832
1 5.68501 9.43238 2.86362
1 8.87165 12.8026 4.2651
1 14.5182 6.17039 9.96993
1 9.42683 6.50067 2.48294
1 8.37561 11.579 2.02694
1 0.0906151 8.91847 12.1898
1 12.9781 5.5853 5.40011
1 5.57428 8.10616 0.490022
1 3.32808 4.35057 11.3013
1 7.22439 1.0942 11.2777
1 8.30912 4.74098 5.46231
1 1.44144 12.109 12.5185
1 4.57984 11.3903 5.29153
1 9.22128 9.05928 2.836
1 2.14858 9.58077 13.2207
1 3.77198 11.4882 1.09203
1 0.263441 10.3698 10.0555
1 11.0161 13.3879 10.665
1 11.5203 0.252914 9.6187
1 10.4854 9.67471 12.4279
1 1.68687 7.72985 2.34758
1 8.17324 2.56367 13.2505
1 -0.122886 9.63056 2.92517
1 2.65897 12.58 9.25004
1 1.46051 7.60081 14.8806
1 5.41416 1.04848 1.65135
1 9.28934 7.45645 10.5258
1 11.5295 8.66777 -0.425283
1 13.0036 14.7254 6.19589
1 12.5275 4.71686 8.91056
1 3.12496 9.63233 2.34729
1 11.7865 9.78006 7.47363
1 9.90378 7.1722 13.3608
1 4.06033 9.12664 4.99574
1 10.8071 4.5063 2.41571
1 1.99071 9.61991 8.63213
1 2.31204 7.59253 9.97731
1 1.75285 6.2067 8.00312
1 7.71096 4.93332 3.16358
1 13.6176 3.60703 4.98009
1 10.8244 13.5636 2.8253
1 6.46638 5.93092 5.94692
1 -0.291954 10.6494 5.08383
1 1.2912 13.9673 2.9501
1 5.8515 -0.214785 6.56877
1 5.65348 11.727 2.52528
1 7.48363 2.03416 5.91636
1 11.3702 11.5669 8.69081
1 1.38844 5.07262 9.94161
1 11.2798 4.14716 5.09308
1 2.75796 3.00767 9.42431
1 3.84169 6.4652 -0.046395
1 14.2589 13.7381 1.12339
1 9.45108 -0.488386 5.37504
1 14.5723 2.31896 12.8678
1 3.56463 9.07904 -0.11168
1 3.90991 13.9777 14.4794
1 5.35829 1.03586 4.5454
1 10.0513 1.0004 -0.173672
1 2.67829 5.04095 14.2319
1 1.94964 1.45934 3.90702
1 14.8306 13.1907 11.3884
1 11.292 8.25173 1.9568
1 11.9715 4.06765 0.221444
1 4.30983 2.76629 2.44915
1 11.0244 12.2149 13.9839
1 1.73513 13.8629 11.0479
1 12.0124 2.75075 9.00985
1 7.24065 2.11643 9.47838
1 5.28256 5.57666 1.71325
1 10.4125 10.1313 4.75605
1 9.96414 4.83821 9.49919
1 6.85306 2.6951 3.69245
1 -0.435052 8.38294 8.9946
1 3.87431 12.581 12.1059
1 12.7441 11.0484 -0.223887
1 10.462 8.04288 8.6643
1 4.48256 8.20152 8.77069
1 10.7416 2.01656 1.69739
1 7.35734 10.3867 11.6951
1 13.1542 9.43323 12.7838
1 10.9137 13.2008 5.92045
1 0.118569 3.74878 0.556316
1 2.77004 1.66014 6.82618
1 -0.110726 14.7567 9.72429
1 8.98691 3.33404 10.6665
1 4.63517 4.0607 -0.58101
1 9.13067 3.40063 0.480983
1 13.4936 2.17842 1.13227
1 12.4753 7.10803 13.3407
1 6.10372 1.61829 14.8063
1 1.7245 5.55259 5.79538
1 14.211 3.88943 11.0092
1 1.29988 15.0305 13.9291
1 14.0534 7.28565 3.41037
1 14.8058 13.7479 13.9246
1 4.9918 9.898 10.2026
1 1.54066 13.6317 5.68996
1 3.32387 -0.168414 12.207
1 12.3332 -0.120769 4.17243
1 8.84714 12.3626 9.42049
1 6.92842 14.264 9.0724
1 7.90727 8.57651 8.82023
1 11.8177 9.4361 10.1017
1 4.93108 1.21975 8.49743
1 1.38965 1.84839 14.0119
1 0.0480273 5.75686 14.5454
1 1.08665 5.40764 2.09339
1 3.26562 3.92089 7.22826
1 8.3227 14.2149 11.2293
1 7.85456 1.067 1.01063
1 13.4275 8.1991 10.8303
1 7.43979 4.11339 7.81025
1 4.65385 8.12335 13.4188
1 -0.381231 12.7406 9.126
1 7.50666 -0.0501043 4.05306
1 4.26901 6.81031 5.94452
1 6.56529 12.5178 12.8492
1 6.93793 10.8761 9.38164
1 10.5907 -0.527228 12.1238
1 6.81779 14.1482 14.908
1 4.60051 7.22372 11.2274
1 9.3893 0.268446 2.50768
1 3.83825 13.5085 6.77465
1 13.262 12.1245 13.4313
1 13.6454 -0.336093 11.4904
1 9.30165 0.639825 9.92678
1 6.70468 11.7814 0.471481
1 14.3965 0.224862 -0.559014
1 4.43383 10.1924 7.6128
1 1.97634 12.3789 -0.415514
1 0.758505 4.464 12.5305
1 5.82058 12.4428 10.5592
1 -0.273753 5.13615 4.64965
1 8.21169 5.83585 0.400339
1 4.38884 11.3216 14.1394
1 14.7484 6.80356 12.3809
1 14.5905 7.08639 6.36108
1 10.7771 0.597746 7.24478
1 1.15154 3.71807 3.61245
1 9.50353 2.72889 8.09137
1 14.8281 3.12835 8.54451
1 11.7468 13.3242 0.468934
1 5.51636 12.5222 7.88709
1 8.0834 9.65011 4.76897
1 5.15807 5.341 12.8764
1 4.14301 14.5297 8.853
1 8.23031 10.6654 7.39811
1 3.55419 0.780962 14.6418
1 5.15555 13.5747 4.94941
1 1.3044 10.0152 0.104458
1 8.04139 5.79657 12.0239
