256
Atoms. Timestep: 20000
1 -0.0338239 0.0343776 -0.275211
1 1.69983 1.97337 -0.0459082
1 1.70002 0.140317 1.81174
1 -0.0969769 1.86947 1.71473
1 3.49574 0.0651482 -0.000126444
1 5.50741 1.89687 -0.0821379
1 5.48059 0.0135264 1.76479
1 3.59987 1.77318 1.74542
1 7.27927 -0.0376748 -0.014268
1 8.99956 1.67453 0.0421337
1 9.0385 -0.193931 1.9171
1 7.12695 1.80261 1.95521
1 10.7404 -0.0319151 -0.102352
1 12.5594 1.68484 -0.0428992
1 12.8977 -0.0519412 1.62982
1 10.8905 1.65916 1.78016
1 -0.212072 3.65663 0.020305
1 1.84916 5.35153 0.027645
1 1.74493 3.5827 1.78272
1 -0.0548117 5.49296 1.66938
1 3.52751 3.66544 -0.136033
1 5.3195 5.47154 -0.145864
1 5.23241 3.72449 1.64543
1 3.4893 5.49301 1.7497
1 7.23645 3.58727 -0.00175605
1 9.19462 5.40781 -0.050031
1 9.04409 3.5615 1.64908
1 7.23636 5.47666 1.77868
1 10.7961 3.49051 -0.0412392
1 12.5451 5.37892 -0.0291751
1 12.6335 3.63877 1.69701
1 10.8522 5.37256 1.76366
1 -0.182648 7.26021 0.0807355
1 1.78997 9.01176 -0.170941
1 1.80807 7.29618 1.75445
1 -0.0867074 9.00848 1.82899
1 3.60916 7.3039 -0.0923289
1 5.44745 9.21406 -0.0510738
1 5.37328 7.2012 1.76652
1 3.51296 8.96489 1.80459
1 7.22546 7.15328 -0.0800043
1 9.0397 9.10963 -0.150219
1 9.12543 7.13518 1.67399
1 7.35149 8.82806 1.71033
1 10.9528 7.2389 -0.0220722
1 12.7103 9.06961 -0.0440618
1 12.6513 7.26711 1.78224
1 10.8633 9.12016 1.77092
1 -0.143085 10.7691 -0.113005
1 1.7572 12.7079 -0.0511892
1 1.85594 10.7879 1.87089
1 0.0424811 12.7461 1.5896
1 3.55826 10.8345 0.128566
1 5.50144 12.6968 0.109447
1 5.49113 10.7615 1.78235
1 3.63433 12.8086 1.78273
1 7.32567 10.8886 -0.114422
1 9.08107 12.8002 -0.132263
1 9.05668 10.8048 1.78319
1 7.3765 12.4234 1.79554
1 10.78 10.7319 -0.208668
1 12.7078 12.6685 -0.121233
1 12.783 10.8545 1.75496
1 10.93 12.672 1.62618
1 0.038723 0.0722047 3.58433
1 1.67788 1.828 3.56566
1 1.67507 -0.0254996 5.49217
1 -0.0684401 1.77508 5.52869
1 3.57458 -0.00546433 3.48568
1 5.26936 1.85428 3.55801
1 5.31701 0.100299 5.48819
1 3.5184 1.77945 5.33325
1 7.01208 -0.181166 3.68514
1 9.21256 1.71333 3.6647
1 9.0812 -0.143137 5.40412
1 7.24061 1.74616 5.31671
1 10.9263 -0.113537 3.45858
1 12.7027 1.67354 3.54046
1 12.6845 -0.0621434 5.48113
1 10.9497 1.72763 5.50544
1 -0.086541 3.6207 3.59366
1 1.76172 5.4414 3.42748
1 1.81272 3.6071 5.36706
1 0.037008 5.36858 5.51857
1 3.42701 3.65721 3.56107
1 5.31271 5.5078 3.48823
1 5.43716 3.61895 5.36093
1 3.60714 5.35711 5.32596
1 7.193 3.61927 3.55801
1 9.11125 5.22633 3.5378
1 9.05639 3.36078 5.34586
1 7.28296 5.30494 5.30755
1 10.8703 3.51885 3.69871
1 12.6532 5.2946 3.58502
1 12.5972 3.44751 5.54005
1 10.8165 5.19286 5.56703
1 -0.0964238 7.16444 3.52343
1 1.85978 9.0079 3.60734
1 1.82308 7.13793 5.39794
1 -0.084136 8.86492 5.25612
1 3.61772 7.12234 3.63125
1 5.42158 8.87426 3.53948
1 5.38504 7.11142 5.39153
1 3.59278 9.05402 5.43837
1 7.19653 7.12408 3.60282
1 9.137 8.91226 3.55944
1 8.95302 7.19146 5.27761
1 7.23137 8.85899 5.44498
1 10.8663 7.23902 3.58132
1 12.7491 8.94552 3.54597
1 12.7197 7.00721 5.33531
1 11.0053 8.93886 5.40733
1 -0.0384113 10.8559 3.543
1 1.74969 12.8213 3.49
1 1.79454 10.9046 5.37085
1 -0.0410904 12.6811 5.40987
1 3.64488 10.7808 3.58579
1 5.39393 12.668 3.49959
1 5.46311 10.8037 5.34294
1 3.61611 12.7435 5.44813
1 7.18512 10.6706 3.66111
1 8.97565 12.6115 3.667
1 9.09685 10.7862 5.44417
1 7.14412 12.6939 5.37274
1 10.9817 10.8279 3.69657
1 12.9068 12.8769 3.38673
1 12.6853 10.9143 5.3951
1 10.8763 12.6127 5.35154
1 -0.166696 -0.0125413 7.35117
1 1.62791 1.91395 7.23366
1 1.76452 0.046382 8.91372
1 -0.0568764 1.8258 9.05672
1 3.5516 -0.066614 7.26583
1 5.4525 1.71721 7.3798
1 5.45144 -0.0091137 8.96031
1 3.57315 1.73678 8.95313
1 7.23438 -0.242354 7.22534
1 8.99107 1.77092 7.24556
1 9.10341 -0.221703 8.99634
1 7.26388 1.6496 9.01047
1 10.8701 -0.194335 7.21841
1 12.6023 1.64758 7.39773
1 12.6982 0.00428945 9.08078
1 10.9183 1.77894 8.98001
1 -0.151173 3.59464 7.2941
1 1.82293 5.31283 7.28559
1 1.71565 3.75403 9.09583
1 -0.0843594 5.33291 9.1268
1 3.52406 3.64303 7.23852
1 5.46547 5.34829 7.15475
1 5.39287 3.63296 9.07202
1 3.57288 5.528 9.19874
1 7.26199 3.44312 7.04966
1 8.99872 5.25506 7.20157
1 8.88529 3.58947 9.04038
1 7.15661 5.42881 9.02645
1 10.8111 3.59516 7.3013
1 12.6942 5.3067 7.28145
1 12.5609 3.51549 9.24904
1 10.7686 5.31807 9.09031
1 -0.156344 7.16992 7.1884
1 1.72101 8.92789 7.32912
1 1.73177 7.30927 9.03315
1 -0.102427 8.86039 9.02228
1 3.64046 7.18706 7.28129
1 5.31822 9.00498 7.22058
1 5.38716 7.28906 9.02795
1 3.58715 9.07809 9.09512
1 7.14183 7.08183 7.12971
1 8.96658 9.01311 7.23972
1 8.94622 7.04562 8.80298
1 7.12388 9.04352 8.9619
1 10.8331 7.00522 7.19046
1 12.7728 8.95883 7.17825
1 12.605 7.24883 8.98824
1 10.8314 9.1303 9.18684
1 -0.0455358 10.7554 7.26729
1 1.87361 12.6429 7.25041
1 1.8166 10.7749 9.06686
1 -0.172409 12.6392 9.00702
1 3.6859 10.8728 7.1612
1 5.58244 12.5632 7.27216
1 5.49463 10.9763 9.14919
1 3.67082 12.7016 9.04259
1 7.30515 10.7911 7.09149
1 8.9812 12.5924 7.27695
1 9.01305 10.8263 8.97685
1 7.30418 12.6968 9.15271
1 10.8047 10.702 7.09447
1 12.7374 12.779 7.26123
1 12.6487 10.7008 8.9332
1 10.8513 12.5704 8.94343
1 -0.0365832 0.103602 10.8392
1 1.79203 2.00578 10.9747
1 1.67646 0.00717339 12.553
1 -0.0843264 1.74636 12.6203
1 3.61003 0.264415 10.7374
1 5.54157 1.68278 10.7391
1 5.36155 0.0890356 12.773
1 3.47712 1.85539 12.7043
1 7.19315 0.0139743 10.9628
1 8.99233 1.70877 10.8732
1 9.10783 -0.0223692 12.7701
1 7.25083 1.70445 12.7974
1 10.9126 -0.014149 10.825
1 12.6483 1.73298 10.8402
1 12.5784 -0.183081 12.5218
1 10.9012 1.80648 12.6395
1 -0.149131 3.59008 10.9819
1 1.67639 5.51761 10.8972
1 1.56919 3.67219 12.7294
1 -0.110215 5.49724 12.7216
1 3.64518 3.55186 10.8379
1 5.61628 5.55857 10.9308
1 5.47118 3.66302 12.7026
1 3.6319 5.43484 12.6142
1 7.10134 3.62726 10.8313
1 8.81875 5.49881 10.8696
1 9.06113 3.53385 12.6999
1 7.16225 5.42585 12.7524
1 10.6976 3.4928 10.8633
1 12.5917 5.57541 10.9227
1 12.56 3.53181 12.5242
1 10.8204 5.42187 12.5536
1 -0.0990677 7.20107 10.8501
1 1.78279 9.09253 11.0079
1 1.74682 7.1725 12.7069
1 -0.08064 8.9464 12.6993
1 3.56436 7.44512 10.8762
1 5.44539 9.13281 10.9288
1 5.36397 7.29949 12.6874
1 3.61344 9.08113 12.6182
1 7.2125 7.34822 10.8903
1 9.05258 8.90428 10.9044
1 8.97166 7.25449 12.7907
1 7.16239 9.12894 12.7381
1 10.7182 7.1326 10.8031
1 12.7807 8.86764 10.828
1 12.7145 7.15355 12.6299
1 11.0098 8.98769 12.6189
1 0.0941969 11.0267 10.8531
1 1.83411 12.8614 10.7228
1 1.80139 11.0714 12.7918
1 -0.0120181 12.7113 12.6612
1 3.58296 10.9872 10.9593
1 5.4531 12.7295 10.8905
1 5.44547 10.9921 12.7039
1 3.63047 12.8482 12.6855
1 7.24365 10.8925 10.8317
1 9.07205 12.8363 10.8276
1 8.96177 10.8537 12.5598
1 7.23191 12.775 12.6872
1 10.8072 10.9266 10.9037
1 12.6996 12.7079 10.7033
1 12.7312 10.8848 12.5823
1 10.7725 12.6497 12.6863
