256
Atoms. Timestep: 30000
1 -0.0173298 0.0387734 0.0341934
1 1.62885 1.85666 0.138852
1 1.80395 -0.0954673 1.92032
1 0.140364 1.79324 2.0759
1 3.58523 -0.151404 0.30301
1 5.53831 1.79294 -0.126533
1 5.51207 -0.149037 1.80392
1 3.69568 1.73539 1.8897
1 7.29522 -0.0982051 -0.156108
1 9.11663 1.74745 -0.0429587
1 8.95 -0.264313 1.78495
1 7.20483 1.71235 1.66106
1 10.8504 -0.0206179 0.119384
1 12.7155 1.79719 0.123564
1 12.6785 -0.0730808 1.69144
1 10.9068 1.8984 1.87595
1 0.0237775 3.60453 0.124662
1 1.86966 5.38779 0.0105338
1 1.74109 3.50911 2.0062
1 -0.0270518 5.453 1.75232
1 3.73452 3.54035 -0.0780803
1 5.29301 5.27239 0.0140256
1 5.47086 3.42775 1.83989
1 3.60288 5.4311 1.85419
1 7.20761 3.47509 -0.0808224
1 8.99748 5.45404 -0.0876766
1 9.02695 3.60296 1.69639
1 6.9864 5.4135 1.69633
1 10.8252 3.65852 -0.148178
1 12.7831 5.34518 -0.247467
1 12.6932 3.61934 1.82848
1 10.8947 5.31693 1.80754
1 0.21446 7.20896 -0.365973
1 1.71778 9.09632 -0.0132726
1 1.7727 7.15783 1.7625
1 0.0493448 9.00427 1.83599
1 3.68125 7.24578 -0.122413
1 5.33728 9.05044 -0.179851
1 5.27338 7.31825 1.75141
1 3.50608 8.83285 1.76532
1 7.14832 7.16928 -0.0078585
1 9.09479 8.80002 -0.158273
1 9.04377 7.21003 1.70523
1 7.20051 8.97175 1.58251
1 10.8007 7.12119 0.0232374
1 12.9259 8.91907 -0.151419
1 12.7484 7.19955 1.90018
1 11.0356 8.94289 1.50183
1 -0.0497896 10.8378 -0.297375
1 1.80355 12.8917 0.0286043
1 1.40106 10.9798 1.95348
1 -0.127249 12.7429 1.72619
1 3.65098 10.6822 0.0256893
1 5.35413 12.6119 -0.0310047
1 5.63994 10.7375 1.66758
1 3.54196 12.7074 1.86836
1 7.37598 10.8105 -0.0941911
1 9.10472 12.6456 -0.0826081
1 9.2832 10.8144 1.67438
1 7.16173 12.462 1.64764
1 10.8997 10.7291 -0.150911
1 12.5653 12.6626 -0.133832
1 12.7534 10.9047 1.77131
1 11.0943 12.6912 1.68245
1 -0.0481556 -0.0620987 3.60114
1 1.76803 1.83039 3.71312
1 1.81908 0.0384665 5.24419
1 -0.0927272 1.89128 5.43151
1 3.6105 -0.0321462 3.79882
1 5.52535 1.88621 3.59576
1 5.46743 -0.0684351 5.41842
1 3.65776 1.80917 5.27126
1 7.41829 -0.0298021 3.49792
1 8.915 1.79454 3.54441
1 9.02209 -0.0423173 5.34557
1 7.33275 1.96978 5.4358
1 10.5809 -0.125413 3.55049
1 12.7199 1.70234 3.67942
1 12.5906 -0.0896816 5.30318
1 10.6119 1.67135 5.30563
1 -0.192774 3.79098 3.88128
1 1.72755 5.6687 3.61223
1 1.67735 3.79827 5.35751
1 -0.115217 5.47378 5.59385
1 3.61686 3.6164 3.64884
1 5.39487 5.40528 3.42934
1 5.43925 3.65669 5.36763
1 3.47715 5.48412 5.51354
1 7.35055 3.78684 3.48041
1 8.87332 5.55306 3.5736
1 8.98644 3.73947 5.37903
1 7.09476 5.49624 5.4655
1 10.8117 3.61462 3.60044
1 12.6734 5.62454 3.5795
1 12.6567 3.56836 5.47671
1 10.8098 5.50161 5.37756
1 -0.240481 7.23981 3.82774
1 1.74837 9.01178 3.66088
1 1.74378 7.41052 5.61705
1 -0.234354 9.1158 5.57964
1 3.68116 7.29841 3.74937
1 5.40445 9.06295 3.55505
1 5.49826 7.30278 5.30763
1 3.62094 9.12527 5.46297
1 7.07205 7.18884 3.74861
1 9.23176 9.09187 3.50751
1 9.00044 7.22209 5.39128
1 7.47004 9.01808 5.45999
1 10.8374 7.1924 3.50087
1 12.5344 9.01558 3.67324
1 12.4641 7.3942 5.59114
1 10.7582 9.04901 5.46889
1 -0.255137 10.7849 3.75302
1 1.82465 12.7487 3.67065
1 1.63581 10.7575 5.1978
1 0.0899913 12.6585 5.32637
1 3.59821 10.8808 3.58105
1 5.53534 12.7246 3.4715
1 5.5638 10.7074 5.31341
1 3.6733 12.5124 5.31954
1 7.40749 10.8573 3.62748
1 8.88897 12.498 3.39886
1 9.02098 10.921 5.57771
1 7.46885 12.6805 5.38267
1 10.8634 10.8839 3.51506
1 12.5713 12.7018 3.58149
1 12.5756 10.9253 5.55635
1 10.79 12.6786 5.37135
1 0.102127 -0.0539937 7.1973
1 1.683 1.89944 7.05423
1 1.97154 0.0474438 8.84214
1 0.0727131 1.71831 9.01535
1 3.61866 -0.111885 7.22812
1 5.38035 1.88123 7.18626
1 5.41542 0.0737137 8.85654
1 3.74414 1.68024 8.96454
1 7.20708 -0.132667 7.29529
1 9.18607 1.79028 7.29511
1 9.05619 -0.178192 9.14851
1 7.06757 1.67643 9.02128
1 10.7057 -0.21389 7.23148
1 12.7455 1.59578 7.30916
1 12.6175 -0.019396 9.11386
1 10.9478 1.70608 8.93615
1 -0.165385 3.73459 7.12811
1 1.76337 5.23548 7.25868
1 1.89329 3.4664 9.07391
1 -0.0630333 5.3515 9.15374
1 3.65513 3.49634 7.19758
1 5.30153 5.44402 7.10799
1 5.37525 3.53133 9.04678
1 3.55892 5.29754 8.978
1 7.33578 3.56967 7.33058
1 9.08054 5.46626 7.26191
1 9.07815 3.41322 8.97701
1 7.30765 5.38099 9.10595
1 10.9904 3.64875 7.28563
1 12.4886 5.52316 7.23694
1 12.8565 3.37728 9.0322
1 10.9699 5.30151 9.09804
1 -0.047166 7.18692 7.42969
1 1.58011 9.22785 7.35327
1 1.78963 7.08706 8.96477
1 0.00144616 9.10598 9.07775
1 3.39073 7.29336 7.14057
1 5.48453 9.08868 7.14326
1 5.29746 7.18098 8.81974
1 3.62689 9.05931 9.09563
1 7.32023 7.15573 7.08057
1 8.99264 8.93165 7.35578
1 8.93485 7.22668 9.21258
1 7.13046 8.92068 9.07952
1 10.7086 7.19772 7.33284
1 12.4554 9.12246 7.42756
1 12.5934 7.36418 8.94548
1 10.7675 9.04513 9.08575
1 -0.291631 10.9674 7.17329
1 1.73195 12.7111 7.12254
1 1.81455 11.0817 8.92609
1 0.0977387 12.7576 9.02415
1 3.58054 10.801 7.17981
1 5.43247 12.6154 7.1393
1 5.41429 10.8004 9.0381
1 3.54371 12.6594 8.97239
1 7.22503 10.813 7.21791
1 8.85313 12.7814 7.32633
1 8.84186 10.8811 9.05109
1 7.03898 12.6786 9.01381
1 10.8724 10.9516 7.23651
1 12.5966 12.942 7.24777
1 12.7333 10.9391 8.98613
1 10.887 12.8311 9.10956
1 0.107508 0.00617763 10.9151
1 1.79788 1.80073 10.7774
1 1.94376 -0.00217682 12.7939
1 0.0280088 1.74767 12.6394
1 3.58697 0.110852 10.6755
1 5.43325 1.77457 11.0353
1 5.45652 -0.206348 12.8309
1 3.59966 1.77735 12.7465
1 7.34904 -0.238899 10.9737
1 8.99584 1.71212 10.8511
1 9.04013 0.145462 12.6521
1 7.1965 1.68768 12.5538
1 10.8625 0.015255 10.9161
1 12.6817 1.62067 10.9647
1 12.6944 -0.0898149 12.7183
1 10.8577 1.58507 12.7906
1 -0.216214 3.40949 10.7134
1 1.56667 5.13195 10.7274
1 1.49379 3.58246 12.7674
1 -0.0889753 5.28125 12.5641
1 3.44349 3.5416 10.7686
1 5.32877 5.43217 10.7378
1 5.41988 3.5498 12.5994
1 3.38192 5.30057 12.4575
1 7.16826 3.536 10.6339
1 8.91083 5.29276 10.6837
1 8.94772 3.56889 12.6027
1 7.16476 5.30977 12.6136
1 10.7423 3.32102 10.9855
1 12.594 5.1433 10.9468
1 12.6501 3.33419 12.692
1 10.7215 5.29265 12.6903
1 -0.0383803 7.29954 10.8138
1 1.80129 9.25824 10.8376
1 1.96216 7.31223 12.3989
1 0.112583 9.01319 12.5682
1 3.78797 7.25487 10.8003
1 5.49764 9.09466 10.862
1 5.33638 7.27128 12.678
1 3.65437 9.15447 12.6012
1 7.02713 7.14544 10.8601
1 8.805 9.30895 10.8934
1 9.02155 7.09651 12.4576
1 7.15191 8.98618 12.7706
1 10.7994 7.08354 10.8469
1 12.6146 9.05848 10.8403
1 12.5907 7.20735 12.6
1 10.9092 8.97034 12.4862
1 -0.0413615 10.9938 10.6917
1 1.83798 12.8043 10.8836
1 1.93588 11.0475 12.6355
1 0.03305 12.7725 12.67
1 3.59567 10.9566 10.8403
1 5.44624 12.7759 10.7829
1 5.49162 10.9889 12.6116
1 3.68292 12.6431 12.6649
1 7.02767 10.9885 10.8111
1 8.99575 12.648 10.9863
1 9.07707 10.8221 12.6159
1 7.27149 12.5342 12.7722
1 10.9005 10.847 10.9108
1 12.8455 12.8315 10.9477
1 12.7434 10.629 12.5729
1 10.8209 12.6089 12.6603
