256
Atoms. Timestep: 40000
1 0.0879068 -0.303321 -0.398647
1 1.7403 1.66282 14.3985
1 1.65252 14.5053 1.49774
1 -0.14425 1.8582 1.53459
1 3.47822 14.6354 -0.0629819
1 5.33755 1.7914 -0.179451
1 5.31965 14.6247 1.7771
1 3.44986 1.63979 1.6993
1 7.12994 0.00888157 14.7151
1 9.22371 1.92291 14.8409
1 9.20836 -0.118063 1.52963
1 7.42573 1.83864 1.69903
1 10.995 14.5127 -0.0466796
1 12.762 1.77486 14.371
1 12.6467 -0.152072 1.70588
1 11.1586 1.91515 1.72039
1 -0.153156 3.5119 14.6267
1 1.96766 5.57235 -0.0849036
1 1.86061 3.57142 1.3867
1 14.6284 5.32859 1.71198
1 3.56617 3.58064 -0.370884
1 5.39341 5.34315 -0.198572
1 5.20891 3.53492 1.56463
1 3.54687 5.32288 1.61604
1 7.34608 3.6305 0.112297
1 8.95392 5.38862 14.4144
1 9.08168 3.80512 1.92648
1 7.3055 5.56609 1.73857
1 10.873 3.67661 14.3717
1 12.744 5.75344 14.5064
1 12.5835 3.56884 1.6018
1 10.8176 5.54921 1.55488
1 14.6211 7.27158 -0.0833937
1 1.81172 9.12418 14.5191
1 1.6856 7.2375 1.75226
1 0.00528814 8.9946 1.93885
1 3.71431 7.20384 14.5077
1 5.40239 9.01863 14.5678
1 5.24464 7.23368 1.87542
1 3.74477 9.18904 1.85486
1 7.33695 7.27306 14.3912
1 9.16114 9.38299 0.0784381
1 9.03318 7.31601 1.62195
1 7.15151 9.18755 1.73446
1 10.7972 7.42217 -0.197163
1 12.9534 9.06577 14.8037
1 12.6252 7.41049 1.72879
1 10.8266 9.24528 1.8803
1 -0.0118846 11.0399 -0.0408118
1 1.81731 12.6784 14.6023
1 1.82105 10.741 1.9932
1 0.013016 12.618 1.81833
1 3.57588 10.9278 14.6256
1 5.2948 12.7412 0.149432
1 5.36709 10.7538 1.91986
1 3.54349 12.7246 1.85063
1 7.05554 10.9476 -0.041147
1 9.34796 12.7674 -0.172659
1 8.88326 11.3518 1.68985
1 7.11473 12.9344 2.09393
1 10.8925 10.8159 -0.104494
1 12.6348 12.4963 -0.00288977
1 12.4728 10.8517 1.88638
1 10.9637 12.7629 1.76559
1 -0.267934 -0.141696 3.28345
1 1.63203 1.86591 3.64008
1 1.6656 14.4972 5.24487
1 14.345 1.73253 5.29701
1 3.19965 14.5157 3.45451
1 5.48072 1.88314 3.44533
1 5.33817 14.5347 5.56879
1 3.37428 1.71189 5.27733
1 7.16964 0.191988 3.41657
1 9.04956 1.65259 3.47901
1 9.10147 14.6448 5.33575
1 7.14637 1.91981 5.35358
1 10.8346 14.6816 3.53013
1 12.7921 1.82788 3.53519
1 12.5579 -0.166338 5.29688
1 11.0484 1.84758 5.35673
1 14.4748 3.672 3.43537
1 1.96501 5.41164 3.32596
1 1.78564 3.44037 5.37642
1 -0.19326 5.41914 5.34109
1 3.5149 3.68268 3.49324
1 5.35179 5.21845 3.54142
1 5.11512 3.59116 5.39848
1 3.52955 5.68188 5.36336
1 7.30688 3.73324 3.34335
1 9.09226 5.39633 3.72407
1 9.09676 3.34476 5.24993
1 7.35099 5.44474 5.3793
1 10.8368 3.59692 3.51685
1 12.7037 5.36386 3.47068
1 12.7194 3.60244 5.2192
1 10.8314 5.22388 5.45571
1 14.5244 6.98692 3.5104
1 1.60788 9.20416 3.88971
1 1.51925 7.25445 5.24718
1 14.4641 9.1084 5.48002
1 3.53279 7.53331 3.73355
1 5.42234 9.02043 3.75144
1 5.57123 7.16039 5.38507
1 3.32432 9.01002 5.55193
1 7.1323 7.13245 3.49163
1 8.89559 9.07237 3.53024
1 9.05904 7.34862 5.203
1 7.23187 8.98425 5.57822
1 11.1011 6.98228 3.4883
1 12.5484 8.78039 3.78784
1 12.6979 7.04985 5.55197
1 10.7815 8.84216 5.3349
1 14.3765 10.6226 3.52789
1 1.73655 12.6728 3.59902
1 1.73034 10.8874 5.44536
1 14.276 12.5243 5.12704
1 3.67544 10.8528 3.79662
1 5.26133 12.8981 3.8057
1 5.53975 10.8887 5.42355
1 3.67206 12.5965 5.62299
1 7.25048 10.9161 3.67379
1 9.08717 12.6038 3.53487
1 8.85132 10.7942 5.42149
1 7.2112 12.86 5.24575
1 10.6879 10.9134 3.56036
1 12.6987 12.5666 3.50243
1 12.4831 10.7016 5.2131
1 10.8949 12.7339 5.24796
1 14.2934 -0.36302 7.30862
1 1.61136 1.63233 7.21714
1 1.668 -0.0827338 9.08491
1 14.5747 1.92221 9.16517
1 3.45919 14.5584 7.20335
1 5.27835 1.72516 7.03232
1 5.369 -0.133967 8.94971
1 3.48099 1.68498 8.91533
1 7.55649 14.2884 7.17641
1 9.03899 1.68466 7.18388
1 9.20252 -0.102778 9.15049
1 7.16361 1.72349 8.91957
1 11.0308 -0.110215 7.24581
1 12.6265 1.85935 7.24561
1 12.6689 -0.0146116 9.2312
1 10.8257 1.70172 9.10461
1 0.0334933 3.59798 7.39111
1 1.82599 5.50347 7.20104
1 1.83231 3.52926 9.02437
1 -0.0514361 5.36861 8.88092
1 3.5097 3.43301 7.22036
1 5.45771 5.20891 7.11814
1 5.32977 3.4333 9.01548
1 3.67684 5.21064 9.33289
1 7.37394 3.52369 7.1862
1 9.16095 5.28294 7.14964
1 9.0901 3.55861 8.78455
1 7.16948 5.46688 9.28041
1 10.8991 3.581 7.24716
1 12.7418 5.40306 7.30129
1 12.5999 3.42019 9.04
1 10.8562 5.42299 9.059
1 -0.240972 7.1746 7.30432
1 1.46535 8.86435 7.24126
1 1.7565 7.44968 9.12427
1 14.3078 9.01057 9.02204
1 3.69625 7.2258 7.23249
1 5.33829 8.75479 7.28229
1 5.3813 7.09126 9.17376
1 3.40942 9.16157 9.06079
1 7.51928 7.0339 7.39582
1 9.05281 8.93071 7.21778
1 8.9804 7.25994 9.38222
1 7.09781 9.12339 9.13506
1 10.6345 7.01524 7.17817
1 12.5476 8.87215 7.2469
1 12.6032 7.05993 9.17267
1 10.9431 8.89673 8.84231
1 -0.138176 10.775 7.09207
1 1.67933 12.6845 7.12456
1 1.68817 10.8658 9.28996
1 -0.0208427 12.6063 8.95693
1 3.71577 10.616 7.27945
1 5.52089 12.5781 7.3274
1 5.29958 10.8089 9.3405
1 3.68844 12.6394 8.86659
1 6.92919 10.7197 7.37801
1 8.95578 12.6206 7.16079
1 8.93881 10.6931 8.91446
1 7.22494 12.8015 9.14574
1 10.9089 10.6734 7.12909
1 12.6695 12.5643 7.1215
1 12.6962 10.9521 9.00744
1 10.8203 12.6642 9.00801
1 14.4548 -0.210716 11.0353
1 1.69149 1.71383 10.927
1 1.88372 14.3307 12.5636
1 -0.256866 1.81637 12.5051
1 3.69574 14.5885 10.6964
1 5.47289 1.60974 11.0317
1 5.48833 14.2601 12.6309
1 3.83361 1.56965 12.5674
1 7.36407 14.5413 10.7029
1 9.08464 1.62807 10.74
1 9.20833 0.10374 12.6909
1 7.2235 1.51454 12.8057
1 10.9798 -0.200849 10.9316
1 12.6692 1.78889 10.7642
1 12.6058 -0.178261 12.7835
1 10.8279 1.82673 12.6779
1 -0.278179 3.93696 10.8546
1 1.76113 5.47025 10.7565
1 1.69084 3.588 12.5859
1 14.4255 5.60408 12.8351
1 3.66883 3.34661 10.8537
1 5.51764 5.01793 10.8203
1 5.72572 3.58844 12.7174
1 3.65555 5.47648 12.5435
1 7.35333 3.33515 10.6625
1 9.11596 5.42732 11.0208
1 8.96494 3.37054 12.6793
1 7.38532 5.2579 12.6008
1 10.6551 3.58354 10.8364
1 12.6572 5.43236 10.9971
1 12.6493 3.65648 12.8873
1 11.199 5.50206 12.6854
1 14.6715 7.26602 10.8513
1 1.7203 9.16371 11.0575
1 1.76964 7.17746 12.592
1 14.6138 9.2886 12.8124
1 3.63665 7.3677 11.1014
1 5.37297 9.13233 11.1332
1 5.51423 7.05892 12.5637
1 3.69412 9.05785 12.7244
1 7.26175 7.22886 11.1695
1 9.10678 9.12021 10.9808
1 9.0671 7.39776 12.6363
1 7.31922 9.26571 12.9576
1 10.9544 7.3105 10.9237
1 12.5186 9.20018 10.7398
1 12.9703 7.47322 12.7267
1 10.7867 9.04302 12.7056
1 14.4831 10.8663 10.8296
1 1.85561 12.8906 10.6626
1 1.81957 11.0322 12.7427
1 14.5535 12.4622 12.6086
1 3.51954 10.6861 11.0269
1 5.26466 12.77 10.8881
1 5.25329 10.8089 12.828
1 3.76856 12.7292 12.8164
1 7.03036 11.0197 11.0111
1 9.11044 12.6585 10.6925
1 9.11544 11.0773 12.6381
1 7.31836 12.718 12.5734
1 10.9549 11.003 10.7737
1 12.6733 12.6182 10.7364
1 12.5632 10.7805 12.9212
1 10.97 12.5656 12.6801
