256
Atoms. Timestep: 50000
1 -0.209851 0.0983366 -0.0733023
1 1.8059 1.7221 -0.107068
1 1.38387 -0.0140298 1.86788
1 -0.240419 1.92829 1.4666
1 3.70148 -0.126557 -0.0923774
1 5.3979 1.83634 14.2136
1 5.33013 0.0336787 1.67698
1 3.70539 1.94573 1.70514
1 7.44142 -0.15296 -0.203801
1 8.89805 1.75806 14.3785
1 9.16963 14.1989 2.03109
1 7.35262 1.491 1.6343
1 10.7659 14.684 0.123035
1 12.6785 1.94404 -0.202277
1 12.8675 0.08948 1.65269
1 10.6295 1.58526 2.11277
1 14.6427 3.5974 14.3941
1 1.84593 5.63859 14.3043
1 1.83979 3.74036 1.51501
1 -0.219298 5.41217 1.64209
1 3.56666 3.71793 14.2937
1 5.41507 5.44825 14.4379
1 5.55237 3.5478 1.45032
1 3.83574 5.39705 1.54325
1 7.37795 3.41725 14.3752
1 9.21366 5.35132 14.3213
1 9.02079 3.67471 1.73494
1 7.2391 5.43312 1.64525
1 10.6511 3.49291 -0.0276197
1 12.4581 5.07644 14.5144
1 12.6525 3.66916 1.80153
1 10.7411 5.32324 1.74337
1 14.4119 7.05954 -0.255204
1 1.55029 8.93249 -0.271185
1 2.18442 7.33837 1.50513
1 -0.123255 8.60973 1.86332
1 3.6453 7.16324 14.2385
1 5.44866 8.95922 14.227
1 5.5665 7.31838 1.63952
1 3.73992 9.2245 1.53349
1 7.40931 7.08099 -0.344685
1 9.05533 9.24804 -0.00609864
1 9.00829 7.18404 1.91651
1 7.30834 9.04787 1.69533
1 10.8141 6.98257 0.0949197
1 12.68 9.1173 -0.001977
1 12.7081 7.02262 1.63506
1 10.609 9.06282 2.11978
1 0.115929 10.738 0.213233
1 1.83651 12.5518 -0.226702
1 1.97689 10.6771 1.89143
1 0.0695164 12.6538 1.63009
1 3.65506 10.7969 14.4827
1 5.39877 12.7312 14.7509
1 5.27932 11.0617 1.76039
1 3.38732 12.7728 1.76948
1 7.46197 11.1251 0.312821
1 9.13561 12.6896 0.0694611
1 9.21411 11.048 2.09645
1 7.15702 12.9373 1.99852
1 10.8779 10.7939 0.0894437
1 12.729 12.4497 0.0144203
1 12.6297 10.7903 1.96985
1 10.9688 12.6087 1.65595
1 14.452 -0.00999051 3.65555
1 1.61042 1.72539 3.35415
1 1.59791 0.0122758 5.30053
1 14.6171 1.99265 5.48963
1 3.41269 0.0694173 3.17152
1 5.71914 1.79501 3.35868
1 4.97325 0.175229 5.14223
1 3.30202 1.73752 5.27946
1 7.02563 -0.332209 3.84058
1 8.79294 1.6661 3.60873
1 9.06608 -0.3097 5.36627
1 7.10508 1.69 5.48961
1 10.8969 14.0538 3.77576
1 12.6812 1.99032 3.54975
1 12.787 14.4112 5.4876
1 10.9095 1.44881 5.23942
1 -0.135668 3.6507 3.68081
1 1.93318 5.46652 3.47637
1 1.77941 3.70575 5.23525
1 14.4972 5.17796 5.49127
1 3.76821 3.41638 3.55237
1 5.49707 5.17481 3.34421
1 5.40258 3.48451 5.36832
1 3.576 5.48815 5.32062
1 7.22462 3.6234 3.52114
1 9.10632 5.31195 3.73404
1 8.98193 3.42222 5.69828
1 7.34189 5.34324 5.42365
1 10.8089 3.44341 3.62438
1 12.6953 5.22897 3.67177
1 12.6328 3.50433 5.47674
1 10.8028 5.2078 5.39796
1 14.6941 6.81926 3.72412
1 1.59496 8.74728 3.5036
1 1.50081 7.3969 5.45158
1 14.4909 8.96991 5.54845
1 3.92592 7.08508 3.3065
1 5.56493 9.17984 3.47917
1 5.35988 7.20212 5.45356
1 3.62126 9.21099 5.2243
1 7.15212 6.98331 3.67465
1 8.79009 9.08753 3.83383
1 9.17889 7.04211 5.39338
1 7.23377 9.13758 5.41448
1 11.0343 6.92329 3.67878
1 12.7346 8.97443 3.45426
1 12.6574 7.07382 5.32241
1 11.1707 9.0754 5.3348
1 -0.0231962 10.9111 3.82485
1 1.49969 12.6841 3.45557
1 1.7554 10.7096 5.39231
1 14.5497 12.9667 5.49492
1 3.66303 10.7752 3.54004
1 5.15006 12.7133 3.52626
1 5.42673 10.976 5.47031
1 3.36741 12.706 5.47845
1 7.00409 10.9369 3.55476
1 8.847 12.6089 3.74533
1 8.88016 10.8931 5.34366
1 7.26281 12.7502 5.44664
1 10.9666 11.0371 3.67625
1 12.945 12.7886 3.25194
1 12.7806 10.9325 5.43357
1 11.0551 12.4567 5.56941
1 -0.347819 0.106155 7.13663
1 1.65887 1.79713 7.45881
1 1.79028 -0.0156103 9.31713
1 0.0513405 1.77166 9.34492
1 3.22942 0.0537144 7.1433
1 5.15604 1.67204 7.22207
1 5.26659 -0.156738 9.13291
1 3.40718 1.85042 9.2264
1 7.36602 14.5287 7.3054
1 8.93441 1.62661 7.34465
1 8.99583 -0.321449 9.27664
1 7.08209 1.51104 9.25067
1 11.0091 14.2109 7.11013
1 12.5171 1.72294 7.0682
1 12.9398 14.3971 8.93391
1 10.6228 1.65582 8.95644
1 14.3398 3.42421 7.601
1 1.30727 5.29576 7.37528
1 1.78225 3.82838 9.15442
1 14.1819 5.35409 9.11286
1 3.65283 3.64534 7.20977
1 5.18967 5.66666 7.1034
1 5.34015 3.6311 8.86321
1 3.70636 5.41719 9.07878
1 7.07444 3.58982 7.04653
1 9.17104 5.36675 7.24869
1 8.69364 3.44119 8.8944
1 7.37071 5.56772 8.92861
1 10.9424 3.47318 7.31985
1 12.3605 5.31607 7.33461
1 12.3822 3.34858 9.12773
1 10.9559 5.47601 9.40992
1 14.2535 7.33065 7.27662
1 1.80354 9.22293 7.13616
1 1.57251 7.33142 8.8152
1 -0.121375 9.06195 8.91983
1 3.28883 7.21912 7.1795
1 5.133 8.98132 7.01005
1 5.50622 7.51704 9.06828
1 3.66701 9.42043 8.93482
1 7.08719 6.95922 6.92843
1 9.11242 9.01528 7.10852
1 9.24044 7.06321 9.02062
1 7.44536 8.9452 8.92189
1 11.0386 7.39257 7.30961
1 12.6937 9.18368 7.48589
1 12.8184 7.33476 9.21185
1 10.8364 9.15825 9.07646
1 14.6249 11.0457 7.05728
1 1.83773 12.6292 7.12024
1 1.86632 10.9689 9.01105
1 0.111634 12.7958 9.19433
1 3.63272 11.0482 6.97128
1 5.35271 12.9174 7.22893
1 5.30197 10.9614 8.72728
1 3.54721 12.7108 8.97846
1 7.14323 10.7283 7.13495
1 9.07794 12.3435 7.23741
1 9.0838 10.7558 8.82284
1 7.16753 12.7573 8.88254
1 10.956 10.7839 7.21721
1 12.7954 12.7041 7.34897
1 12.6393 10.8738 9.31792
1 10.9606 12.722 9.03992
1 -0.121393 -0.179003 10.7831
1 1.77103 1.95668 11.0349
1 1.73959 14.8305 12.5733
1 -0.164769 1.74603 12.7899
1 3.75932 14.4814 11.2006
1 5.383 1.56054 10.8117
1 5.5543 -0.217042 12.7571
1 3.46498 1.72235 12.7031
1 7.12125 14.4227 10.8217
1 9.0757 1.60203 10.9066
1 9.21497 14.4104 12.558
1 7.22567 1.70357 12.5113
1 11.06 14.4367 11.015
1 12.6928 1.5007 10.8225
1 12.7092 14.4409 12.7347
1 10.9009 1.65945 12.905
1 14.2167 3.4842 10.7495
1 1.49452 5.57394 10.735
1 1.64891 3.79721 12.8669
1 14.3457 5.30033 12.5173
1 3.53599 3.7088 10.8572
1 5.53678 5.54156 10.7527
1 5.40773 3.51508 12.5575
1 3.60176 5.73899 12.2388
1 7.23508 3.4114 10.8315
1 9.17767 5.19539 10.8593
1 9.02969 3.61709 12.5646
1 7.48153 5.32818 12.4785
1 10.8232 3.40892 10.9276
1 12.5883 5.59113 11.0595
1 12.5403 3.39908 12.5237
1 10.8786 5.39079 12.4907
1 -0.15238 7.36902 11.0848
1 1.59289 9.14417 10.7046
1 1.75525 7.58739 12.4285
1 14.5315 9.09781 12.9157
1 3.42418 7.59635 10.8274
1 5.4182 9.29509 10.8672
1 5.58574 7.18197 12.5138
1 3.5735 9.34469 12.4366
1 7.673 7.13873 10.7545
1 9.07413 9.1065 10.9017
1 9.33209 7.04641 12.7592
1 7.18569 9.11804 12.7056
1 10.7468 7.25911 10.829
1 12.7951 9.04619 11.0019
1 12.5967 7.22674 12.8625
1 11.0621 9.07214 12.6369
1 -0.0666104 11.1661 11.1298
1 1.82688 12.8624 11.1749
1 1.61109 10.7316 12.739
1 14.4957 12.5398 13.1044
1 3.48647 11.101 10.7573
1 5.45432 12.6772 10.8926
1 5.72999 11.0357 12.8799
1 3.67576 12.8068 12.747
1 7.33336 10.8606 10.9114
1 8.95069 12.5942 10.7381
1 9.06627 11.0114 12.7906
1 7.23713 12.8664 12.8199
1 10.8104 10.923 10.8226
1 12.9669 12.7429 11.1881
1 12.9426 10.8406 12.8274
1 10.9538 12.5442 12.9153
