256
Atoms. Timestep: 60000
1 -0.10206 -0.0690949 0.0199235
1 1.68396 1.83804 -0.0784659
1 1.74968 14.4276 1.38356
1 0.06214 1.62626 1.85863
1 3.47304 -0.106627 14.3092
1 5.19868 1.76331 -0.128649
1 5.58095 -0.117708 1.72906
1 3.45099 1.50667 1.77985
1 7.19032 0.173904 -0.12138
1 9.01944 1.55887 -0.0784807
1 8.89717 -0.0288252 1.73582
1 7.47829 1.82934 1.7839
1 10.7774 -0.0894827 14.36
1 12.6793 1.48655 14.5668
1 12.742 -0.146935 2.03453
1 11.144 1.40281 1.73999
1 -0.0697298 3.68977 0.0569734
1 1.5975 5.39723 14.4022
1 1.56058 3.64311 2.03556
1 -0.11899 5.27793 1.79889
1 3.51821 3.4993 -0.099208
1 5.21609 5.21561 0.0350685
1 5.34159 3.59169 1.72644
1 3.71508 5.24933 1.98623
1 7.42114 3.44574 14.5605
1 8.96397 5.28976 -0.0528129
1 9.2664 3.45151 1.58331
1 7.2608 5.12692 1.77665
1 11.0242 3.23437 0.00851232
1 12.7513 5.42972 -0.0772383
1 12.8633 3.46551 1.54637
1 11.0706 5.37865 1.56373
1 14.5816 7.11628 -0.148452
1 1.41702 8.91612 0.0937088
1 1.65741 7.19592 1.86474
1 14.5017 9.27158 1.62068
1 3.44231 7.04029 0.421034
1 4.80985 8.67204 14.4722
1 5.45742 7.33058 1.62456
1 3.568 9.16014 1.66456
1 7.03967 6.8198 14.5148
1 9.30421 9.0314 -0.144888
1 9.01046 7.17307 1.34701
1 6.99677 8.96946 1.3876
1 11.2383 7.3418 -0.130833
1 12.85 9.20842 -0.129428
1 12.9533 7.25325 1.59469
1 10.9294 8.78884 1.69784
1 0.108656 11.181 0.126534
1 1.83437 12.8273 14.3321
1 1.74218 10.8268 1.79457
1 -0.0274228 12.8103 1.75627
1 3.29802 10.9176 14.481
1 5.23272 12.7081 14.5489
1 5.31365 10.9896 1.59034
1 3.48339 12.569 1.61657
1 7.09076 11.2772 14.5738
1 9.02708 12.7902 14.4797
1 8.90457 10.7625 1.53157
1 7.41433 12.6646 1.81398
1 10.9154 10.9667 -0.0782183
1 12.8746 12.6747 14.4735
1 12.7934 11.1032 1.81241
1 10.9491 13.0889 1.41081
1 -0.118817 14.4702 3.77859
1 1.83901 1.29803 3.46838
1 1.6485 14.4897 5.37251
1 -0.0501755 1.91252 5.51022
1 3.66559 14.4738 3.60385
1 5.35582 1.73161 3.67009
1 5.29173 -0.0737638 5.41728
1 3.41976 1.84971 5.37211
1 7.30192 -0.157238 3.57937
1 9.27218 1.667 3.66223
1 9.01525 0.0259824 5.35006
1 6.84644 1.59388 5.61792
1 10.9198 14.5439 3.78858
1 12.8761 1.38151 3.56523
1 12.8804 14.365 5.53525
1 11.0942 1.74926 5.41113
1 14.1081 3.67359 3.64519
1 1.79141 5.4093 3.42434
1 1.74966 3.70099 5.12024
1 14.4522 5.18199 5.47139
1 3.54364 3.33368 3.36926
1 5.59 5.60805 3.51064
1 5.31748 3.3303 5.61754
1 3.76297 5.20971 5.28218
1 7.06877 3.30316 3.78239
1 9.22755 5.68995 3.26342
1 9.05566 3.56289 5.33938
1 7.29634 5.15715 5.47173
1 10.9463 3.37412 3.33625
1 12.5119 5.21918 3.58257
1 12.4842 3.64006 5.42185
1 10.7407 5.14013 5.27145
1 14.4929 7.2222 3.4964
1 1.57435 9.03011 3.52806
1 1.90181 7.36288 5.13034
1 -0.0455401 9.31427 5.26788
1 3.801 7.20529 3.62016
1 5.37397 9.20859 3.18129
1 5.6274 7.46565 5.40329
1 3.79673 8.98384 5.23194
1 7.42194 7.29379 3.31006
1 9.03272 8.86484 3.17291
1 8.89395 7.07107 5.32038
1 7.26135 9.16222 5.43438
1 11.3663 7.12612 3.37129
1 12.705 8.96573 3.28079
1 12.7716 7.28339 5.36735
1 11.0509 9.06334 5.18702
1 14.5899 10.7701 3.42962
1 1.73467 12.7994 3.38814
1 1.91527 10.8907 5.22565
1 14.4901 12.4941 5.31922
1 3.58793 10.7433 3.46497
1 5.47113 12.7556 3.62243
1 5.4521 10.7405 5.4458
1 3.68475 12.7364 5.36729
1 7.13928 10.7363 3.35819
1 9.16824 12.9706 3.45642
1 9.00957 10.8375 5.11258
1 7.4018 12.8844 5.24574
1 10.7254 10.7308 3.3888
1 12.3502 12.5998 3.88278
1 12.6722 10.6552 5.14689
1 10.6647 12.4475 5.59806
1 14.5056 -0.00997099 7.10532
1 1.86233 1.73358 7.14959
1 1.54036 0.0351358 8.9221
1 14.3919 1.79745 9.02518
1 3.40808 14.2924 7.07505
1 5.23397 1.59249 7.53864
1 5.41609 14.5983 9.03178
1 3.57464 1.64274 9.09536
1 7.25369 14.5084 7.22158
1 9.09189 1.7103 7.2293
1 9.02024 0.143814 9.01904
1 7.11032 1.68774 9.0401
1 10.8 14.554 7.31538
1 12.7284 1.72649 7.48911
1 12.7186 -0.153158 8.97337
1 10.7982 1.62003 9.19526
1 14.4317 3.67319 7.27181
1 1.67278 5.16419 7.14506
1 1.47083 3.49067 9.10581
1 -0.119997 5.55039 9.11249
1 3.30376 3.57824 7.56228
1 5.37636 5.47017 6.83945
1 5.42488 3.68398 8.96146
1 3.68636 5.78453 8.81066
1 7.2447 3.28423 7.34592
1 8.97487 5.27236 7.08254
1 9.08081 3.31793 9.26722
1 7.19194 5.48095 9.19562
1 10.8238 3.52063 7.37423
1 12.5611 5.47111 7.24115
1 12.7827 3.62853 8.91882
1 10.9571 5.38394 8.81909
1 -0.0825505 7.33856 6.94987
1 1.7502 9.10169 7.21375
1 1.88081 7.45891 8.87954
1 -0.132818 9.18891 8.96009
1 3.61951 7.44353 6.84394
1 5.25378 9.13999 7.30303
1 5.47745 7.33963 9.10225
1 3.57839 8.94877 9.20723
1 7.49376 7.12408 7.3138
1 9.18128 9.0129 7.11237
1 9.31223 7.0715 9.02892
1 7.04766 9.01016 8.88168
1 10.8556 7.16459 6.94826
1 12.6642 8.98694 7.06991
1 12.7954 7.31869 9.12913
1 10.8381 9.04329 8.89384
1 0.0138636 10.6943 7.33547
1 1.55074 12.8192 7.20678
1 1.85084 10.877 8.92036
1 -0.0184436 12.8483 8.95521
1 3.61 10.9845 7.06702
1 5.40752 12.8906 7.14211
1 5.25317 11.1193 9.34866
1 3.51678 12.7423 9.09942
1 7.62292 10.965 7.26984
1 9.02322 12.9367 7.34844
1 9.18491 11.0509 9.22517
1 7.38478 12.7201 9.21619
1 10.9372 10.7794 7.02037
1 12.6789 12.5897 7.2716
1 12.8799 11.1209 9.00638
1 10.7824 12.647 9.01904
1 14.5014 14.4829 11.0297
1 1.35927 1.58053 10.7657
1 1.81015 -0.107372 12.8275
1 14.4243 1.64134 12.8684
1 3.35071 14.5094 10.5835
1 5.17951 1.88502 10.6437
1 5.54784 -0.0749246 12.93
1 3.45226 1.54537 12.5086
1 7.14792 0.11063 10.763
1 9.02929 1.94908 11.2586
1 9.01316 0.00536307 12.7447
1 6.95207 1.95005 12.7542
1 10.7661 14.4104 10.9066
1 12.6432 1.64027 10.6545
1 12.5412 14.5451 12.7735
1 11.0302 1.53257 12.4818
1 14.4488 3.52779 10.8781
1 1.59227 5.36416 11.024
1 1.8127 3.51362 12.8856
1 14.5442 5.32276 12.6344
1 3.42274 3.84343 11.0795
1 5.4056 5.23026 10.9478
1 5.0604 3.76658 12.8743
1 3.44508 5.63219 13.0636
1 7.29175 3.43298 10.8652
1 9.2098 5.55336 11.0973
1 9.4582 3.57749 12.8721
1 7.18343 5.11695 12.5888
1 11.038 3.62115 10.9195
1 12.5907 5.42507 10.7872
1 12.7305 3.59941 12.995
1 10.8896 5.54078 13.0907
1 0.156265 7.40375 10.8929
1 1.62878 9.21381 10.9155
1 1.63963 7.20436 12.9047
1 -0.122344 9.00015 12.5931
1 3.56826 7.24883 10.9078
1 5.32447 9.26185 11.0527
1 5.5354 7.00096 12.6352
1 3.27766 8.86281 12.6729
1 7.26417 7.52309 10.9677
1 9.14668 8.87186 10.7153
1 9.2231 7.25471 12.9361
1 6.82892 9.08905 12.9901
1 10.958 7.46276 10.9321
1 13.0702 9.19246 10.8964
1 12.7148 7.13219 12.6217
1 10.9744 9.35262 12.7406
1 0.034866 11.0239 10.6928
1 1.74738 12.6775 10.8984
1 1.54127 10.7122 12.815
1 0.149749 12.6747 12.7667
1 3.40423 10.7746 11.1415
1 5.13799 12.6152 11.3498
1 5.14909 10.739 13.0449
1 3.50724 12.8553 12.759
1 7.00664 11.1033 11.0255
1 8.66661 12.9354 11.3288
1 8.93011 10.8154 12.596
1 7.04871 12.9045 12.8248
1 11.0986 10.9554 11.1291
1 12.8808 12.7593 10.6555
1 13.0942 10.8701 12.9066
1 10.7017 12.7622 12.7327
