256
Atoms. Timestep: 70000
1 14.5733 14.5066 -0.176247
1 1.39725 1.55795 -0.304728
1 1.39398 -0.191668 2.03233
1 14.27 1.56272 1.644
1 3.11332 -0.0796862 14.9219
1 5.19141 1.47852 -0.211019
1 5.34824 -0.0836809 1.82356
1 3.41475 1.44926 2.05488
1 7.22814 0.0531871 -0.161697
1 9.1691 1.95488 -0.225482
1 9.10107 14.8522 1.47945
1 7.36855 1.85794 1.66698
1 10.5354 0.0529803 -0.474594
1 12.5527 1.40609 14.2698
1 12.6853 14.4984 1.49271
1 11.2444 1.69155 2.28032
1 14.5702 3.71023 -0.614135
1 1.64048 5.15595 -0.0839805
1 1.35985 3.49611 1.73717
1 -0.495988 5.33621 1.45339
1 3.27711 3.367 14.9613
1 5.22309 5.14975 -0.373193
1 5.03293 3.3176 1.75134
1 3.36598 5.26661 1.65517
1 6.69243 3.29842 14.5057
1 9.14761 5.27292 14.2556
1 9.17701 3.57813 1.70754
1 7.04205 4.93033 1.39332
1 11.0284 3.29329 -0.319722
1 12.2905 5.27392 14.726
1 12.8328 3.37569 1.78254
1 10.9509 5.29437 1.83375
1 -0.255391 6.91968 14.7431
1 1.76758 8.94348 14.56
1 1.9194 6.99594 1.85936
1 0.133168 8.65115 1.47312
1 3.53972 7.26758 -0.18293
1 5.68253 9.03779 14.7306
1 5.66531 6.96133 1.53268
1 3.40389 8.90193 1.64641
1 7.34052 7.26402 14.5329
1 9.07676 9.07325 0.231572
1 9.07241 6.76344 1.47575
1 7.3135 8.85763 1.75218
1 10.7501 7.07649 14.52
1 12.9507 9.24731 14.5926
1 12.8529 7.16294 1.41177
1 11.0496 9.12653 1.62401
1 -0.224061 10.8799 14.6665
1 1.48895 12.5535 14.8709
1 1.8486 10.7735 1.71021
1 14.5487 12.5965 1.6353
1 3.54926 10.74 14.7089
1 5.48141 12.7629 -0.512461
1 5.52789 11.2503 1.61347
1 3.69431 12.9542 1.23521
1 7.38776 10.7212 14.7413
1 8.56927 12.8541 14.516
1 9.15743 11.3192 1.39676
1 7.10092 13.1133 1.56959
1 11.1691 11.021 -0.545811
1 12.8588 12.8243 14.3907
1 12.8635 10.9321 1.57522
1 11.0605 12.8121 1.18189
1 14.2556 14.7495 3.60637
1 1.28106 1.76398 3.40316
1 1.6035 14.4371 5.01682
1 -0.548187 1.78438 5.50729
1 3.50166 14.4486 3.62173
1 5.76644 1.63378 3.50321
1 5.32333 0.177973 5.30323
1 3.17525 1.66323 5.27156
1 7.40791 -0.0993707 3.63247
1 8.98058 1.77917 3.81696
1 9.23631 -0.117535 5.4031
1 7.19259 1.84914 5.68891
1 11.2722 14.6905 3.7171
1 12.7098 1.85937 3.96457
1 12.8757 -0.541929 5.61754
1 10.6737 1.74098 5.67482
1 14.442 3.48465 3.51396
1 1.3793 5.34021 3.37831
1 1.18456 3.57352 5.14062
1 -0.363023 5.20106 5.14161
1 3.16685 3.72833 3.67278
1 5.46339 4.80203 3.37215
1 5.31957 3.55859 5.58974
1 3.698 5.79134 5.23407
1 7.31295 3.61183 3.62435
1 9.32911 5.62801 3.50657
1 8.91899 3.89968 5.47278
1 7.02271 5.4145 5.54108
1 11.0222 3.54671 3.99259
1 12.7321 5.47345 3.32342
1 12.8386 3.99183 5.52152
1 10.9118 5.34228 5.8999
1 -0.25843 7.11652 3.56946
1 1.73187 8.87927 3.71673
1 1.75172 6.96927 5.34349
1 -0.338056 8.96085 5.52318
1 3.6008 7.22917 3.54586
1 5.83124 9.43179 3.50165
1 5.56683 7.01234 5.16913
1 3.79564 8.80457 5.74707
1 7.36308 7.20237 3.38082
1 9.15993 8.62558 3.31011
1 9.14939 7.21716 5.44161
1 7.34853 8.81095 5.38159
1 11.3033 7.28745 3.56622
1 13.0023 9.09597 3.4037
1 12.7538 7.0991 5.53649
1 10.7313 9.13186 5.19821
1 -0.0284917 10.4445 3.57659
1 1.16775 12.5828 3.50311
1 1.46645 10.863 5.50361
1 14.5346 12.5629 5.3192
1 3.48745 11.1562 3.45177
1 5.42438 12.9639 3.33932
1 5.12111 11.0358 5.36346
1 3.33976 12.6013 5.56961
1 7.46911 11.2207 3.22756
1 9.32501 13.0597 3.62086
1 8.91851 11.1336 5.17641
1 7.34132 12.9836 5.18097
1 10.4176 10.8571 3.15707
1 12.8114 12.3234 3.46386
1 12.8655 10.8791 5.23697
1 10.9189 12.5693 5.61995
1 0.0377513 14.5295 7.1134
1 1.4439 1.69179 6.93967
1 1.91373 14.8365 8.73843
1 -0.125102 1.57079 8.72262
1 3.23262 14.6511 6.85965
1 5.17758 1.57497 7.3425
1 5.25862 14.8077 8.78786
1 3.26583 1.73593 8.87916
1 7.16035 -0.33677 6.97048
1 8.83345 1.74329 7.30186
1 9.18616 14.842 9.18016
1 7.09513 1.76896 8.93606
1 11.0319 -0.106165 7.32858
1 12.6527 1.80324 7.28593
1 12.9119 14.8127 9.13494
1 11.0283 1.77769 9.18884
1 14.7887 3.71138 7.07035
1 1.73304 5.17815 7.2249
1 1.66592 3.35359 8.90471
1 0.00701538 5.21918 9.45425
1 3.52954 3.55046 7.25969
1 5.2076 5.50202 7.30141
1 5.13916 3.39835 9.08159
1 3.67738 5.29225 9.04068
1 7.01636 3.52201 7.35522
1 9.03202 5.49179 7.27967
1 9.21683 3.34914 9.05719
1 7.43308 5.29981 9.38861
1 10.6714 3.63462 7.19377
1 13.2405 5.58578 7.48121
1 12.7545 3.84357 8.83106
1 10.8781 5.4035 9.09854
1 -0.02831 7.28948 7.12719
1 1.67099 9.17382 7.47551
1 1.87628 7.19432 9.32114
1 -0.515793 9.15162 9.04565
1 3.24342 7.22921 7.31966
1 5.42392 8.99873 7.32583
1 5.88351 7.28611 9.22511
1 3.81733 8.97588 9.10257
1 7.20064 7.31398 7.2283
1 8.88631 9.39489 7.10478
1 9.07204 7.38556 8.8104
1 7.41562 9.40432 8.92643
1 11.0828 7.43656 7.37865
1 12.5992 9.20426 7.11849
1 13.0181 7.18731 9.25773
1 11.0334 8.94748 9.28053
1 14.4023 10.8578 7.44208
1 1.59227 12.5938 7.19904
1 1.57421 10.9888 9.07825
1 -0.2707 12.8319 9.01874
1 3.26642 10.82 7.43707
1 5.28801 13.2247 6.97263
1 5.22596 10.9913 8.94197
1 3.53818 13.0478 9.29449
1 6.98513 11.1304 6.86503
1 8.97614 13.2368 7.40522
1 9.29052 10.7749 9.3641
1 7.09966 12.957 9.12
1 11.0447 11.1069 7.62966
1 12.6646 12.7975 7.40595
1 12.6493 10.8968 9.27522
1 10.8757 12.928 9.21069
1 0.152664 14.6091 10.7514
1 1.54629 1.88923 11.1651
1 1.65828 -0.217405 12.8403
1 -0.317251 1.56499 12.7264
1 3.60701 14.6121 11.3541
1 5.33208 1.3524 10.996
1 5.67551 -0.262934 12.7399
1 3.53814 1.6891 12.5984
1 7.19816 14.797 10.6295
1 9.01219 1.72413 10.8678
1 8.88964 -0.219309 12.5665
1 7.20746 1.81195 12.6348
1 10.7921 -0.182114 10.9509
1 12.9138 1.70808 10.8536
1 13.0888 14.8157 12.6079
1 10.8439 1.84882 12.6364
1 14.7014 3.12321 10.5473
1 1.83801 5.23709 11.0029
1 1.6959 3.47055 12.8374
1 -0.284932 5.40941 12.8009
1 3.50122 3.49435 10.6682
1 5.38574 5.33662 10.9188
1 5.26364 3.53483 12.4704
1 3.29367 5.4573 13.1207
1 7.18676 3.28217 10.6104
1 9.04256 5.32645 11.0005
1 8.93212 3.39037 12.6456
1 7.0467 5.34095 12.7203
1 10.9468 3.5187 11.0155
1 12.9763 5.22485 10.9464
1 12.8597 3.46514 12.4196
1 10.8891 5.11945 12.4417
1 14.7917 7.41886 11.0788
1 1.85953 9.19939 10.8636
1 1.56805 7.10996 12.7731
1 -0.0294808 9.11752 12.8212
1 3.60777 7.21313 10.8604
1 5.64913 8.71794 11.1011
1 5.29082 7.09838 12.8639
1 3.71549 8.9175 12.5091
1 7.36795 7.31256 10.8499
1 9.11565 9.02571 11.1911
1 8.91529 7.18021 12.6843
1 7.55204 9.31413 12.9354
1 11.092 7.5667 11.2243
1 12.8021 9.10291 11.0917
1 13.0578 7.10882 12.7862
1 10.9112 9.11256 12.9791
1 -0.217499 10.8756 10.914
1 1.90312 12.6246 10.8563
1 1.78692 10.894 12.8042
1 0.12518 12.9256 12.565
1 3.57271 10.6105 10.9817
1 5.03842 12.7891 10.8549
1 5.50607 10.8793 12.951
1 3.57565 12.593 12.9922
1 7.07012 10.7246 10.9775
1 9.04211 12.6598 10.8856
1 9.31818 11.1469 12.8286
1 7.15452 12.4876 12.5254
1 11.2025 11.0589 11.1105
1 13.0276 13.0189 11.0426
1 13.1625 10.8535 12.693
1 10.9551 13.0745 12.8216
