256
Atoms. Timestep: 80000
1 0.45908 -0.197625 14.3528
1 1.70477 1.80519 -0.130015
1 1.50914 -0.512143 1.8066
1 0.134785 1.66395 1.50876
1 3.33691 14.5329 0.0486916
1 5.19031 1.92468 14.8496
1 5.39639 -0.161419 1.732
1 3.34149 1.72877 1.58184
1 7.16007 -0.377843 14.777
1 9.08014 1.73362 14.9481
1 9.20217 14.4733 1.7583
1 7.25025 1.78002 1.44375
1 10.9381 14.3603 14.3444
1 12.8319 1.72147 14.3019
1 12.997 -0.0869086 1.22709
1 11.103 1.57135 1.44469
1 14.5008 3.51664 0.129026
1 1.47704 5.17846 -0.128679
1 1.39817 3.44573 1.81577
1 14.6093 5.43378 1.78929
1 3.23202 3.62754 -0.190404
1 5.20332 5.38779 14.6822
1 5.55651 3.52893 1.57305
1 3.55548 5.22517 1.69712
1 7.18128 3.30609 14.4525
1 9.06837 5.4494 14.5157
1 9.05668 3.71975 1.61998
1 7.16791 5.45738 1.58916
1 10.9398 3.50917 14.4527
1 12.5502 5.16787 -0.38673
1 12.6521 3.56693 1.52081
1 10.9254 5.48259 1.61544
1 14.5909 7.48529 -0.116139
1 1.81293 9.25073 -0.57607
1 1.51224 7.16216 1.55407
1 -0.453007 8.93737 1.88517
1 3.46553 7.14584 14.7412
1 5.23841 8.88332 0.114892
1 5.32606 7.17741 1.83142
1 3.45335 9.02986 1.58506
1 7.09867 7.48911 0.0333235
1 9.09861 9.06928 0.209106
1 9.0175 7.11815 1.37975
1 7.39039 9.06776 2.1179
1 10.6996 7.45377 -0.0515999
1 12.6847 9.24826 -0.0650247
1 12.4425 7.26032 1.57411
1 10.7938 9.13366 1.78381
1 -0.225881 10.642 0.0852472
1 1.59564 12.1623 0.0883427
1 1.54362 10.528 1.65688
1 -0.221556 12.7649 1.71956
1 3.59158 10.6802 14.2921
1 5.31792 12.7229 0.18006
1 5.49684 10.6462 1.73528
1 3.53194 12.2508 1.49612
1 6.99506 10.8666 14.8249
1 9.06995 12.358 0.012342
1 8.68754 11.1797 2.03002
1 7.14449 13.0393 1.93612
1 11.2549 11.5861 0.245315
1 13.5256 12.6868 -0.2854
1 12.8379 10.7954 2.01481
1 11.4765 12.9668 1.91972
1 -0.293663 -0.209133 3.45916
1 2.0372 1.61618 3.69803
1 1.85715 14.7106 5.34662
1 14.796 1.75283 5.37512
1 3.42852 -0.385342 3.78574
1 5.51175 1.66771 3.3948
1 5.04177 14.4234 5.55649
1 3.9018 1.71269 5.36757
1 7.27651 14.6515 3.91198
1 8.92682 1.33494 3.27217
1 8.81806 -0.0193741 5.43075
1 7.15949 1.76559 5.4945
1 10.9463 0.117218 3.63563
1 12.9562 1.73474 3.3237
1 12.7992 -0.137779 5.4549
1 10.9566 1.64167 5.4698
1 -0.191703 3.2478 3.51884
1 1.68048 5.335 3.38971
1 1.88354 3.26432 5.23175
1 0.142339 5.18357 5.22838
1 3.5987 3.46413 3.38724
1 5.34833 5.27867 3.3638
1 5.44102 3.47866 5.10282
1 3.68872 5.4364 5.07709
1 6.99432 3.55397 3.51119
1 9.34416 5.12143 3.86192
1 8.75017 3.27514 5.16202
1 7.56047 5.32557 5.42808
1 10.9354 3.25327 3.189
1 12.5977 5.45411 3.33979
1 12.9378 3.8348 5.05438
1 11.2611 5.16374 5.47425
1 14.5766 7.1332 3.52367
1 1.6002 9.03551 3.76689
1 1.2925 7.11567 5.49759
1 14.6132 9.19751 5.45026
1 3.2462 6.9829 3.31191
1 5.27418 9.16734 3.43424
1 5.66976 6.94755 5.16883
1 3.39075 8.94495 5.21965
1 7.38853 6.88638 3.48255
1 9.23321 8.99673 3.55816
1 9.04417 6.90276 5.23303
1 7.17216 8.80539 5.22979
1 10.7512 7.15249 3.54309
1 12.5059 8.94824 3.74045
1 12.7381 7.07659 5.26095
1 10.7522 8.97083 5.14097
1 -0.383913 11.0211 3.59803
1 1.89518 12.4208 3.13865
1 1.50646 10.9124 5.51892
1 14.9097 12.6102 5.35401
1 3.53737 10.9669 3.69802
1 5.49276 12.5764 3.40237
1 5.76067 11.0357 5.43147
1 3.21477 12.5942 5.49695
1 7.25136 10.8828 3.8054
1 8.94017 12.9441 3.60906
1 9.33059 10.8006 5.34047
1 7.27005 12.8038 5.36124
1 10.8886 11.1131 3.35017
1 12.9396 12.8288 3.84304
1 12.5388 10.9383 5.35436
1 10.8224 12.8067 5.33701
1 -0.257438 -0.160398 7.21018
1 1.71299 1.62514 6.98269
1 1.69174 -0.0616659 8.97163
1 -0.279314 1.65561 9.28522
1 3.78756 0.164422 7.63086
1 5.55559 2.18508 7.14957
1 5.63014 0.0049348 8.9072
1 3.92522 1.80703 9.02182
1 6.89691 -0.349842 7.02608
1 8.92005 1.44949 7.1269
1 8.92912 0.171651 9.10282
1 7.0226 1.8802 9.47163
1 10.5662 -0.368494 7.24354
1 12.7884 2.37607 7.20486
1 12.5737 -0.051371 8.50236
1 10.9713 2.11227 9.04398
1 -0.0706239 3.43512 7.10732
1 1.80207 5.32757 7.10036
1 1.79607 3.3171 8.74041
1 0.350298 5.20741 8.97516
1 3.59658 3.55012 7.06223
1 5.41507 5.2818 7.25922
1 5.58114 3.81983 9.09456
1 3.52044 5.67799 9.13122
1 7.25584 3.67357 7.19563
1 9.09428 5.45683 7.42051
1 8.80296 3.57031 9.28702
1 7.13307 5.58082 9.01498
1 10.3824 3.73676 7.13998
1 12.8705 5.30901 7.39192
1 12.7031 3.77111 9.16154
1 10.8528 5.48073 9.05672
1 14.4947 7.65953 7.29384
1 1.78578 9.33121 7.02099
1 1.56772 7.44512 9.13722
1 14.3384 9.29668 9.18928
1 3.22648 7.53518 7.12668
1 5.45334 9.14722 7.2534
1 5.00429 7.49109 9.03136
1 3.4922 9.16704 8.96665
1 7.27739 7.00981 6.85231
1 9.33876 8.9917 7.06226
1 9.22987 7.3131 8.87369
1 7.38394 8.85856 8.75818
1 11.1068 7.33309 6.94894
1 12.7094 9.38204 7.23293
1 12.4752 7.46637 9.01338
1 10.7516 9.2404 8.83775
1 14.2205 10.999 7.14877
1 1.58655 13.1508 7.061
1 1.36589 11.0872 9.04362
1 14.3561 12.8896 8.83227
1 3.91482 11.0703 7.18418
1 5.68011 12.4862 7.51284
1 5.0979 10.7287 9.02596
1 3.24979 12.6558 8.90246
1 7.5061 10.1931 6.96361
1 9.10722 12.6045 7.2081
1 8.9007 11.0131 8.83322
1 7.41439 13.1884 9.13621
1 10.8992 10.9734 7.0486
1 12.5764 12.7103 6.96402
1 12.6218 11.0851 9.26737
1 10.7869 12.6525 8.82944
1 -0.05996 14.4608 10.6733
1 1.7528 1.85417 10.7107
1 2.173 15.0273 12.4398
1 -0.43069 1.55118 12.1362
1 3.80904 -0.360461 10.7155
1 5.24848 1.65123 10.8671
1 5.25966 -0.512197 12.829
1 3.82364 1.85474 12.8565
1 7.41374 14.3068 11.322
1 9.03199 1.84773 10.8058
1 9.17206 14.8509 12.6423
1 7.0231 1.57488 12.8923
1 10.7479 14.4469 10.6285
1 12.6502 0.996185 10.6833
1 13.0194 14.5175 12.8126
1 11.2741 1.42607 12.7153
1 14.8397 3.77508 10.8094
1 1.89963 5.6908 11.0794
1 1.25004 3.53398 12.8163
1 14.4489 5.41409 13.103
1 3.63334 3.60908 10.8718
1 5.40602 5.49338 10.9344
1 5.33586 3.57796 12.8953
1 3.69312 5.21949 12.7295
1 7.01435 3.64138 11.2049
1 9.00794 5.4214 11.1745
1 8.96054 3.32319 12.8322
1 7.05195 5.58789 13.0389
1 10.8355 3.54176 11.3102
1 12.2432 5.74457 11.0559
1 12.8465 3.66956 12.5205
1 10.8191 5.44546 12.899
1 -0.351317 6.78393 11.0838
1 1.62042 9.01896 10.714
1 1.55231 7.01469 13.015
1 15.0559 8.57771 12.5395
1 3.97922 7.50473 10.9739
1 5.68691 9.40423 10.8527
1 5.65315 7.52929 13.0306
1 3.79347 9.23541 12.6548
1 7.07684 7.24381 11.0122
1 8.74079 9.23329 10.9831
1 8.83035 7.40564 13.0897
1 7.19912 9.24314 12.5468
1 10.7879 7.34882 11.3456
1 12.7139 8.76321 11.0685
1 12.6529 7.35419 13.0994
1 10.9806 9.04668 12.9327
1 14.4618 10.8395 11.1577
1 1.49504 12.5924 10.5549
1 1.51377 10.8232 12.5939
1 0.328739 12.7186 12.5332
1 3.3483 10.7999 10.8289
1 5.20421 12.4862 10.5751
1 5.14444 11.2755 12.7995
1 3.4152 12.8603 12.903
1 7.16315 11.3259 10.9073
1 9.22979 12.6252 11.6574
1 9.20669 10.4658 13.1421
1 7.27656 12.5773 13.0871
1 10.9673 10.6968 11.1191
1 12.8387 12.9543 10.5897
1 13.1399 10.695 12.87
1 11.4062 12.3308 12.8403
