256
Atoms. Timestep: 90000
1 -0.0714009 14.8129 14.8094
1 2.07756 1.95166 14.5042
1 1.69842 -0.11135 1.2982
1 0.0990799 1.66414 1.34395
1 3.73009 14.6029 14.5642
1 5.33811 1.29936 0.040845
1 5.07605 14.3872 1.80756
1 3.65994 1.61706 1.5842
1 7.49259 14.7172 14.6297
1 8.63092 1.91762 0.212304
1 8.86176 -0.0746061 1.99532
1 6.90189 1.65892 1.80869
1 10.9394 14.8759 -0.221285
1 13.1247 1.42465 14.718
1 12.9986 -0.315744 1.53623
1 10.9076 1.7248 1.2516
1 14.7199 3.76307 -0.00600653
1 1.28756 5.27479 -0.0603002
1 2.11233 3.68293 1.62726
1 14.6132 5.42242 1.81871
1 3.72201 3.67891 14.1995
1 5.61669 5.30812 14.7053
1 5.41696 3.86196 1.38849
1 3.46392 5.45795 2.06538
1 6.70386 2.99893 14.2471
1 9.30525 5.1084 14.7597
1 8.51209 3.5229 1.77908
1 7.15884 5.34282 1.59963
1 10.5661 3.31201 14.6374
1 12.7306 5.59134 14.7075
1 12.4883 3.86082 1.39442
1 10.8634 5.49931 1.90401
1 -0.135967 7.21607 14.716
1 1.48053 8.99508 14.339
1 1.40167 7.21111 1.47935
1 14.4669 8.95998 1.61044
1 3.32519 6.72698 14.6839
1 5.1222 8.74838 14.6625
1 5.29337 6.90716 1.86846
1 3.42668 8.64463 1.50014
1 7.15637 7.43721 -0.221196
1 8.9477 9.20628 14.4882
1 9.20324 7.31045 1.6045
1 6.90676 8.78547 1.65832
1 10.868 7.42326 14.7144
1 12.7494 8.8569 14.6854
1 12.6203 6.99463 1.48008
1 11.0031 8.9278 1.51572
1 -0.177019 10.415 -0.00481757
1 1.53844 12.6109 -0.145322
1 1.72297 10.9579 1.61036
1 0.0864504 12.8667 1.4246
1 3.02261 10.7508 -0.304081
1 4.88657 12.5452 0.127364
1 5.0315 10.4681 1.37647
1 2.87976 13.0793 2.22056
1 7.47601 11.0806 -0.0894145
1 9.20834 13.009 0.431093
1 9.31157 10.6927 1.95826
1 6.80446 13.1887 1.58891
1 10.9037 10.819 0.0234984
1 12.8185 12.6749 0.206755
1 12.6768 10.6775 1.64715
1 11.3647 13.0147 1.79418
1 -0.223118 -0.0414978 3.09379
1 1.77594 2.03013 3.74134
1 1.36731 -0.167819 5.23754
1 -0.169293 1.82217 5.06779
1 3.16965 0.308959 3.63089
1 5.08277 1.71255 3.57408
1 5.18255 14.8476 5.05449
1 3.92865 1.82813 5.83235
1 7.23944 14.6572 3.60913
1 9.10884 2.09436 3.44418
1 9.07872 0.333205 5.32514
1 7.26757 1.9491 4.96413
1 10.8341 -0.00941163 3.11834
1 12.795 1.89851 3.12208
1 13.158 -0.0475858 5.00443
1 11.3408 1.54842 5.06864
1 14.8098 3.33362 3.0771
1 1.36276 5.05874 3.37489
1 1.55788 3.8739 5.21414
1 -0.199328 5.17237 5.84476
1 3.50856 3.69691 3.49631
1 5.48664 5.13306 3.55162
1 5.42405 3.90169 5.24203
1 3.45234 5.10374 5.48008
1 7.08453 3.50888 3.49769
1 9.05895 5.33084 3.26199
1 9.42516 3.82543 5.11331
1 7.58857 5.64908 5.40373
1 10.8103 3.65399 3.32203
1 12.9115 5.641 3.66443
1 12.9024 3.43256 4.75466
1 11.0247 5.51567 5.25462
1 -0.126189 7.17752 3.54102
1 1.88017 8.75244 3.69815
1 1.63401 6.46615 5.67668
1 -0.100116 9.31052 4.97302
1 3.40607 7.08509 4.11528
1 4.8548 9.05617 3.86961
1 5.20692 6.7625 5.4032
1 3.124 9.23951 5.55877
1 7.29784 7.15498 3.68181
1 8.74874 8.95884 3.88154
1 9.19275 7.11022 5.37893
1 7.13602 8.61427 5.47405
1 11.0743 7.16246 3.55938
1 12.4245 9.28623 3.43739
1 13.4159 7.48551 5.39048
1 10.6746 8.73738 5.31816
1 -0.319647 11.0275 3.33422
1 1.11171 12.9955 3.66556
1 1.41532 11.1965 5.36879
1 -0.267981 12.8099 5.42071
1 3.38078 10.9586 3.26815
1 5.35989 12.8329 3.79898
1 5.19199 11.3494 5.62808
1 3.25804 13.163 5.08628
1 6.71207 10.4406 3.82993
1 9.16128 12.7398 3.18457
1 9.10067 10.7677 5.29769
1 7.351 12.6201 5.27174
1 10.975 11.331 3.90399
1 13.1944 12.8702 3.20474
1 13.0433 10.9789 5.29278
1 10.93 13.074 5.23916
1 -0.256782 14.6063 7.00121
1 1.24514 1.51333 7.32867
1 1.31746 14.5319 9.23806
1 14.3919 1.0954 8.69989
1 3.56655 0.0408378 7.26274
1 5.70442 1.86592 7.14718
1 5.62884 0.0320384 9.00373
1 3.44515 1.21295 9.57677
1 6.8818 -0.172896 6.78128
1 8.97891 1.36833 7.19536
1 9.2307 14.6303 8.98187
1 7.53729 1.88432 8.71297
1 10.952 -0.537491 6.8921
1 12.7905 1.07518 7.01057
1 12.7572 14.523 9.25296
1 11.1348 1.21634 8.84453
1 14.1971 3.10479 7.28278
1 1.63557 5.10303 7.84108
1 1.12928 2.91867 9.3272
1 14.746 5.09233 9.13626
1 3.67828 3.75733 7.49167
1 5.92313 5.14466 7.70368
1 5.36651 3.04804 9.29533
1 3.57341 5.41819 9.4036
1 7.60857 3.69441 6.91894
1 9.45545 5.2296 7.27781
1 9.81049 3.15809 9.01998
1 7.68717 5.13018 9.07386
1 11.3151 3.14866 6.80421
1 12.7649 5.04754 6.74293
1 12.6096 2.97332 9.42909
1 10.8326 5.51347 9.31141
1 -0.0387536 7.14126 7.37074
1 1.14112 9.13669 7.00645
1 1.84148 7.85033 9.05939
1 14.5694 9.32748 9.0999
1 3.64161 7.21489 7.14352
1 5.24355 9.05231 6.72272
1 5.20959 7.34285 9.10318
1 3.64826 9.03028 8.977
1 6.9903 7.37053 7.54855
1 8.8524 8.97733 7.01359
1 9.20538 7.4431 9.16194
1 7.29458 9.1249 9.08646
1 11.1461 7.29668 7.41343
1 12.7342 9.32735 7.41886
1 12.6507 7.28654 9.32315
1 10.7352 9.71034 8.62472
1 14.672 10.7983 7.08042
1 1.86608 13.2066 7.00769
1 1.98204 10.8564 8.92165
1 -0.155264 12.8305 8.87752
1 3.40547 11.1911 7.16253
1 5.23168 13.0335 7.01122
1 5.28366 10.8678 8.90776
1 3.70595 13.089 9.04507
1 7.08235 10.7819 6.96469
1 9.02931 12.5694 7.19385
1 8.57143 11.1694 9.01126
1 6.95165 12.991 8.5135
1 10.9987 10.7291 6.43096
1 13.0473 12.8405 7.2215
1 12.99 11.3855 8.8649
1 10.8231 12.7264 8.84734
1 14.924 -0.304976 11.264
1 1.74895 1.74027 11.3832
1 1.89928 -0.0899196 13.1533
1 0.0564321 1.82016 13.2405
1 3.56308 14.2777 11.2101
1 5.65378 1.2889 10.7682
1 5.36218 -0.0648301 12.9641
1 3.5766 1.54577 12.4293
1 7.37172 0.0999855 10.6706
1 9.60675 1.5621 10.9681
1 8.90324 14.3685 12.6176
1 7.16837 1.4278 12.9741
1 10.9527 14.4943 11.0623
1 12.8612 1.06573 11.4436
1 13.0817 13.8549 13.2342
1 10.8812 1.57779 12.821
1 14.1644 3.31436 11.1721
1 1.58475 5.38312 10.7847
1 2.06971 3.93317 12.6772
1 14.5409 5.1949 12.7896
1 3.35111 3.63358 10.7742
1 5.53934 5.55464 10.9334
1 5.44018 3.20877 12.1571
1 3.76619 5.54595 12.2763
1 7.5029 2.91215 10.7534
1 8.94432 5.36635 11.1644
1 8.9948 3.20408 13.0964
1 7.14156 5.04665 12.9036
1 10.9547 3.51824 11.0297
1 12.9461 5.2294 10.4953
1 12.7104 3.67427 13.3529
1 11.4825 5.19475 12.4517
1 14.6193 7.0822 10.7104
1 1.5386 9.34131 10.8968
1 1.81478 7.15582 12.9448
1 14.6511 9.46424 12.557
1 3.51826 7.53114 10.9136
1 5.24323 9.22348 10.7556
1 5.38279 7.74049 12.4395
1 3.29034 9.28766 12.6668
1 7.51652 7.42787 11.1429
1 9.1809 9.29012 10.9235
1 8.99821 7.31932 13.0919
1 7.29422 9.0867 12.9377
1 10.9089 7.27934 11.3317
1 12.5191 9.37529 10.5265
1 13.154 7.26483 12.7149
1 11.0001 9.64649 12.873
1 -0.21485 11.3221 10.5934
1 1.70266 12.8122 11.2994
1 1.47716 11.0323 12.7316
1 -0.160138 12.439 13.1452
1 3.68205 11.079 10.9654
1 5.47313 12.4773 10.8954
1 5.43053 10.6502 12.8431
1 3.55978 12.3186 12.8742
1 7.09583 10.9408 11.0311
1 8.62778 12.953 10.881
1 8.91893 11.0086 12.9869
1 6.45059 12.9382 13.2657
1 11.2098 11.34 11.1207
1 13.2371 12.7835 11.0707
1 12.8453 11.2398 13.4708
1 10.9476 12.6977 13.0287
