LAMMPS (16 Aug 2018)
  using 1 OpenMP thread(s) per MPI task
# Melting
units 		metal
boundary 	p p p
atom_style 	atomic

lattice 		fcc 3.61
Lattice spacing in x,y,z = 3.61 3.61 3.61
region 		box block 0 4 0 4 0 4
create_box 	1 box
Created orthogonal box = (0 0 0) to (14.44 14.44 14.44)
  1 by 1 by 1 MPI processor grid
create_atoms 	1 box
Created 256 atoms
  Time spent = 0.0003836 secs
pair_style 	eam
pair_coeff 	* * "C:\Program Files\LAMMPS 64-bit 16Aug2018\Potentials\Cu_u3.eam"
Reading potential file C:\Program Files\LAMMPS 64-bit 16Aug2018\Potentials\Cu_u3.eam with DATE: 2007-06-11

timestep 	0.01
thermo 		1000

variable		 N equal step
variable 		pote equal pe
variable 		T equal temp
variable 		Press equal press
variable 		V equal vol
velocity 		all create 10 825577 dist gaussian

fix 		extra all print 100 "${N} ${T} ${V} ${pote} ${Press}" file data
dump 		1 all cfg 10000 a*.cfg mass type xs ys zs
dump_modify 	1 element Cu pad 6
dump        2 all xyz 10000 b*.xyz
dump        3 all dcd 10000 c.dcd
fix 		1 all npt temp 10 2000 1 iso 0 0 10
run 		120000
Neighbor list info ...
  update every 1 steps, delay 10 steps, check yes
  max neighbors/atom: 2000, page size: 100000
  master list distance cutoff = 6.95
  ghost atom cutoff = 6.95
  binsize = 3.475, bins = 5 5 5
  1 neighbor lists, perpetual/occasional/extra = 1 0 0
  (1) pair eam, perpetual
      attributes: half, newton on
      pair build: half/bin/atomonly/newton
      stencil: half/bin/3d/newton
      bin: standard
Per MPI rank memory allocation (min/avg/max) = 5.668 | 5.668 | 5.668 Mbytes
Step Temp E_pair E_mol TotEng Press Volume 
       0           10   -906.21739            0   -905.88778    5920.4738    3010.9364 
100 5.17138641237125 3011.77330479507 -906.012545932965 5816.93588432948
200 6.99328400595195 3013.91206411756 -906.002421609777 4872.43500699522
300 7.43688977954045 3016.15833098867 -905.91591970896 3983.38237901419
400 10.1418634603102 3017.9668630414 -905.876394305143 3232.37002491708
500 14.0387465717515 3019.26758308342 -905.84394826439 2750.88736596032
600 16.4667626117558 3020.31482689651 -905.735988966283 2473.49401164374
700 12.8552854044553 3021.08866544507 -905.404778275663 2637.18891186168
800 22.2451235846291 3021.98522802843 -905.51066356647 2139.94694426059
900 24.386668184062 3022.58446822 -905.385314247217 2111.19576231547
1000 24.201693180757 3023.0765206038 -905.218208803033 2168.80079069999
    1000    24.201693   -905.21821            0   -904.42049    2168.8008    3023.0765 
1100 26.7556173202655 3023.27205424519 -905.190290570629 2163.46618270045
1200 32.6170698748547 3023.23240989921 -905.306785106395 2071.85542929961
1300 26.3656590709415 3022.89732131949 -905.018965394514 2582.73326179573
1400 37.3068616622378 3022.72275974362 -905.279061899571 2370.93193352218
1500 35.7752577164115 3022.2706472953 -905.090819007818 2862.51333300961
1600 31.7167800507334 3021.74887725549 -904.814167975526 3503.81124309046
1700 39.7269615133641 3021.32050776545 -904.959875602137 3594.42282905207
1800 33.7641541621185 3020.73256311339 -904.656539365089 4279.13290165299
1900 41.7018210234587 3020.43082904717 -904.830624304689 4194.06845432668
2000 42.7922339193958 3020.23651189899 -904.761765754237 4451.15737961946
    2000    42.792234   -904.76177            0   -903.35128    4451.1574    3020.2365 
2100 43.9764727047002 3020.3768015421 -904.685323783295 4461.36959260974
2200 42.5495953195459 3021.00538905045 -904.508031143736 4456.71116362834
2300 50.3889207555948 3022.12416522642 -904.652126439973 3804.23359055988
2400 50.6942470998826 3023.35397315448 -904.55377274058 3419.14029180951
2500 52.4128082245656 3024.6521714431 -904.511414137379 2922.80312037174
2600 54.0251495564353 3025.83401671021 -904.462159926492 2472.22691369612
2700 53.9153566998482 3027.03537274578 -904.343084364291 2119.36251504528
2800 57.9581011907638 3028.04068381218 -904.35426401614 1691.65731073317
2900 55.4652716957037 3028.89806163714 -904.147789443328 1632.06530071356
3000 59.2291852664282 3029.52803669783 -904.158190745974 1323.71076147372
    3000    59.229185   -904.15819            0   -902.20592    1323.7108     3029.528 
3100 56.017131060166 3029.94771485929 -903.921925811117 1529.30000774248
3200 67.0896499064042 3030.09775133094 -904.128091353489 1223.2430254254
